# Region type : patch inlet
# Faces       : 4
# Area        : 4.500000e-06
# Scale factor: 1.000000e+00
# Time        	average(U)	average(p)
1             	(3.361805e+01 2.407446e-09 0.000000e+00)	1.045432e+05
1.05          	(3.356581e+01 2.182108e-09 0.000000e+00)	1.044224e+05
1.1           	(3.350817e+01 1.962994e-09 0.000000e+00)	1.042930e+05
1.15          	(3.344450e+01 1.749000e-09 0.000000e+00)	1.042042e+05
1.2           	(3.337706e+01 1.551507e-09 0.000000e+00)	1.041086e+05
1.25          	(3.330591e+01 1.359139e-09 0.000000e+00)	1.040363e+05
1.3           	(3.323175e+01 1.170675e-09 0.000000e+00)	1.039972e+05
1.35          	(3.315703e+01 9.934611e-10 0.000000e+00)	1.039426e+05
1.4           	(3.308183e+01 8.223174e-10 0.000000e+00)	1.039048e+05
1.45          	(3.300714e+01 6.623898e-10 0.000000e+00)	1.038863e+05
1.5           	(3.293505e+01 5.087382e-10 0.000000e+00)	1.038511e+05
1.55          	(3.286509e+01 3.594293e-10 0.000000e+00)	1.038498e+05
1.6           	(3.279883e+01 2.176612e-10 0.000000e+00)	1.038625e+05
1.65          	(3.273811e+01 8.028498e-11 0.000000e+00)	1.038581e+05
1.7           	(3.268276e+01 -4.366527e-11 0.000000e+00)	1.038719e+05
1.75          	(3.263410e+01 -1.713685e-10 0.000000e+00)	1.038854e+05
1.8           	(3.259271e+01 -2.908271e-10 0.000000e+00)	1.039029e+05
1.85          	(3.255895e+01 -4.045410e-10 0.000000e+00)	1.039318e+05
1.9           	(3.253379e+01 -5.129989e-10 0.000000e+00)	1.039553e+05
1.95          	(3.251716e+01 -6.179324e-10 0.000000e+00)	1.039883e+05
2             	(3.250910e+01 -7.159066e-10 0.000000e+00)	1.040363e+05
2.05          	(3.251080e+01 -8.114731e-10 0.000000e+00)	1.040634e+05
2.1           	(3.252127e+01 -9.025571e-10 0.000000e+00)	1.041012e+05
2.15          	(3.254038e+01 -9.891077e-10 0.000000e+00)	1.041485e+05
2.2           	(3.256835e+01 -1.074274e-09 0.000000e+00)	1.041879e+05
2.25          	(3.260398e+01 -1.150784e-09 0.000000e+00)	1.042456e+05
2.3           	(3.264772e+01 -1.228085e-09 0.000000e+00)	1.042884e+05
2.35          	(3.269893e+01 -1.302332e-09 0.000000e+00)	1.043162e+05
2.4           	(3.275626e+01 -1.370077e-09 0.000000e+00)	1.043494e+05
2.45          	(3.281888e+01 -1.437057e-09 0.000000e+00)	1.043879e+05
2.5           	(3.288619e+01 -1.502125e-09 0.000000e+00)	1.044213e+05
2.55          	(3.295689e+01 -1.561344e-09 0.000000e+00)	1.044612e+05
2.6           	(3.303088e+01 -1.620934e-09 0.000000e+00)	1.044769e+05
2.65          	(3.310667e+01 -1.676732e-09 0.000000e+00)	1.044839e+05
2.7           	(3.318272e+01 -1.730725e-09 0.000000e+00)	1.044984e+05
2.75          	(3.325842e+01 -1.781680e-09 0.000000e+00)	1.045062e+05
2.8           	(3.333256e+01 -1.830862e-09 0.000000e+00)	1.045127e+05
2.85          	(3.340406e+01 -1.877592e-09 0.000000e+00)	1.045211e+05
2.9           	(3.347271e+01 -1.922301e-09 0.000000e+00)	1.045047e+05
2.95          	(3.353697e+01 -1.965921e-09 0.000000e+00)	1.044855e+05
3             	(3.359585e+01 -2.006592e-09 0.000000e+00)	1.044685e+05
3.05          	(3.364880e+01 -2.046137e-09 0.000000e+00)	1.044459e+05
3.1           	(3.369494e+01 -2.083742e-09 0.000000e+00)	1.044248e+05
3.15          	(3.373383e+01 -2.119006e-09 0.000000e+00)	1.043992e+05
3.2           	(3.376531e+01 -2.154566e-09 0.000000e+00)	1.043579e+05
3.25          	(3.378847e+01 -2.187031e-09 0.000000e+00)	1.043184e+05
3.3           	(3.380306e+01 -2.218902e-09 0.000000e+00)	1.042798e+05
3.35          	(3.380897e+01 -2.248704e-09 0.000000e+00)	1.042401e+05
3.4           	(3.380602e+01 -2.279327e-09 0.000000e+00)	1.042030e+05
3.45          	(3.379450e+01 -2.305939e-09 0.000000e+00)	1.041603e+05
3.5           	(3.377460e+01 -2.333150e-09 0.000000e+00)	1.041111e+05
3.55          	(3.374632e+01 -2.357016e-09 0.000000e+00)	1.040655e+05
3.6           	(3.371004e+01 -2.382500e-09 0.000000e+00)	1.040234e+05
3.65          	(3.366630e+01 -2.404547e-09 0.000000e+00)	1.039832e+05
3.7           	(3.361561e+01 -2.429464e-09 0.000000e+00)	1.039472e+05
3.75          	(3.355887e+01 -2.448718e-09 0.000000e+00)	1.039078e+05
3.8           	(3.349677e+01 -2.468092e-09 0.000000e+00)	1.038684e+05
3.85          	(3.342992e+01 -2.488407e-09 0.000000e+00)	1.038358e+05
3.9           	(3.335930e+01 -2.507397e-09 0.000000e+00)	1.038080e+05
3.95          	(3.328584e+01 -2.524071e-09 0.000000e+00)	1.037859e+05
4             	(3.321055e+01 -2.541892e-09 0.000000e+00)	1.037689e+05
4.05          	(3.313466e+01 -2.558171e-09 0.000000e+00)	1.037506e+05
4.1           	(3.305904e+01 -2.573424e-09 0.000000e+00)	1.037370e+05
4.15          	(3.298463e+01 -2.588819e-09 0.000000e+00)	1.037312e+05
4.2           	(3.291251e+01 -2.602523e-09 0.000000e+00)	1.037322e+05
4.25          	(3.284367e+01 -2.616131e-09 0.000000e+00)	1.037404e+05
4.3           	(3.277916e+01 -2.629582e-09 0.000000e+00)	1.037529e+05
4.35          	(3.271999e+01 -2.642174e-09 0.000000e+00)	1.037660e+05
4.4           	(3.266684e+01 -2.653292e-09 0.000000e+00)	1.037856e+05
4.45          	(3.262040e+01 -2.665303e-09 0.000000e+00)	1.038131e+05
4.5           	(3.258141e+01 -2.675124e-09 0.000000e+00)	1.038458e+05
4.55          	(3.255043e+01 -2.685859e-09 0.000000e+00)	1.038838e+05
4.6           	(3.252801e+01 -2.696806e-09 0.000000e+00)	1.039223e+05
4.65          	(3.251453e+01 -2.706339e-09 0.000000e+00)	1.039600e+05
4.7           	(3.250999e+01 -2.714009e-09 0.000000e+00)	1.040020e+05
4.75          	(3.251446e+01 -2.721358e-09 0.000000e+00)	1.040482e+05
4.8           	(3.252791e+01 -2.730927e-09 0.000000e+00)	1.040964e+05
4.85          	(3.255021e+01 -2.741568e-09 0.000000e+00)	1.041439e+05
4.9           	(3.258109e+01 -2.748291e-09 0.000000e+00)	1.041886e+05
4.95          	(3.262005e+01 -2.755420e-09 0.000000e+00)	1.042310e+05
5             	(3.266648e+01 -2.761003e-09 0.000000e+00)	1.042725e+05
5.05          	(3.271969e+01 -2.767340e-09 0.000000e+00)	1.043135e+05
5.1           	(3.277894e+01 -2.774639e-09 0.000000e+00)	1.043525e+05
5.15          	(3.284344e+01 -2.781386e-09 0.000000e+00)	1.043870e+05
5.2           	(3.291231e+01 -2.787474e-09 0.000000e+00)	1.044159e+05
5.25          	(3.298455e+01 -2.793107e-09 0.000000e+00)	1.044398e+05
5.3           	(3.305909e+01 -2.797840e-09 0.000000e+00)	1.044599e+05
5.35          	(3.313490e+01 -2.803182e-09 0.000000e+00)	1.044764e+05
5.4           	(3.321094e+01 -2.808084e-09 0.000000e+00)	1.044888e+05
5.45          	(3.328621e+01 -2.813477e-09 0.000000e+00)	1.044954e+05
5.5           	(3.335967e+01 -2.817513e-09 0.000000e+00)	1.044965e+05
5.55          	(3.343037e+01 -2.821690e-09 0.000000e+00)	1.044912e+05
5.6           	(3.349732e+01 -2.825617e-09 0.000000e+00)	1.044805e+05
5.65          	(3.355960e+01 -2.830533e-09 0.000000e+00)	1.044655e+05
5.7           	(3.361635e+01 -2.833793e-09 0.000000e+00)	1.044480e+05
5.75          	(3.366689e+01 -2.836427e-09 0.000000e+00)	1.044254e+05
5.8           	(3.371057e+01 -2.841680e-09 0.000000e+00)	1.043981e+05
5.85          	(3.374683e+01 -2.845216e-09 0.000000e+00)	1.043657e+05
5.9           	(3.377516e+01 -2.846257e-09 0.000000e+00)	1.043300e+05
5.95          	(3.379516e+01 -2.850013e-09 0.000000e+00)	1.042924e+05
6             	(3.380656e+01 -2.853141e-09 0.000000e+00)	1.042541e+05
6.05          	(3.380927e+01 -2.854164e-09 0.000000e+00)	1.042138e+05
6.1           	(3.380325e+01 -2.860004e-09 0.000000e+00)	1.041718e+05
6.15          	(3.378861e+01 -2.861954e-09 0.000000e+00)	1.041279e+05
6.2           	(3.376550e+01 -2.863526e-09 0.000000e+00)	1.040837e+05
6.25          	(3.373419e+01 -2.865722e-09 0.000000e+00)	1.040410e+05
6.3           	(3.369510e+01 -2.868862e-09 0.000000e+00)	1.040000e+05
6.35          	(3.364878e+01 -2.870101e-09 0.000000e+00)	1.039598e+05
6.4           	(3.359585e+01 -2.873961e-09 0.000000e+00)	1.039207e+05
6.45          	(3.353700e+01 -2.874451e-09 0.000000e+00)	1.038831e+05
6.5           	(3.347299e+01 -2.876403e-09 0.000000e+00)	1.038486e+05
6.55          	(3.340463e+01 -2.877734e-09 0.000000e+00)	1.038185e+05
6.6           	(3.333286e+01 -2.880439e-09 0.000000e+00)	1.037926e+05
6.65          	(3.325867e+01 -2.882360e-09 0.000000e+00)	1.037706e+05
6.7           	(3.318307e+01 -2.883990e-09 0.000000e+00)	1.037521e+05
6.75          	(3.310710e+01 -2.885138e-09 0.000000e+00)	1.037374e+05
6.8           	(3.303174e+01 -2.886573e-09 0.000000e+00)	1.037286e+05
6.85          	(3.295803e+01 -2.887672e-09 0.000000e+00)	1.037261e+05
6.9           	(3.288701e+01 -2.889277e-09 0.000000e+00)	1.037294e+05
6.95          	(3.281968e+01 -2.890397e-09 0.000000e+00)	1.037380e+05
7             	(3.275701e+01 -2.891874e-09 0.000000e+00)	1.037514e+05
7.05          	(3.269987e+01 -2.892295e-09 0.000000e+00)	1.037696e+05
7.1           	(3.264905e+01 -2.893184e-09 0.000000e+00)	1.037935e+05
7.15          	(3.260527e+01 -2.894042e-09 0.000000e+00)	1.038227e+05
7.2           	(3.256919e+01 -2.898304e-09 0.000000e+00)	1.038563e+05
7.25          	(3.254134e+01 -2.896634e-09 0.000000e+00)	1.038932e+05
7.3           	(3.252215e+01 -2.899409e-09 0.000000e+00)	1.039321e+05
7.35          	(3.251186e+01 -2.897363e-09 0.000000e+00)	1.039736e+05
7.4           	(3.251060e+01 -2.897329e-09 0.000000e+00)	1.040179e+05
7.45          	(3.251840e+01 -2.899344e-09 0.000000e+00)	1.040639e+05
7.5           	(3.253516e+01 -2.899520e-09 0.000000e+00)	1.041107e+05
7.55          	(3.256065e+01 -2.901662e-09 0.000000e+00)	1.041571e+05
7.6           	(3.259452e+01 -2.904509e-09 0.000000e+00)	1.042021e+05
7.65          	(3.263624e+01 -2.900745e-09 0.000000e+00)	1.042457e+05
7.7           	(3.268523e+01 -2.902192e-09 0.000000e+00)	1.042874e+05
7.75          	(3.274076e+01 -2.903224e-09 0.000000e+00)	1.043272e+05
7.8           	(3.280207e+01 -2.903757e-09 0.000000e+00)	1.043636e+05
7.85          	(3.286828e+01 -2.905419e-09 0.000000e+00)	1.043960e+05
7.9           	(3.293847e+01 -2.906710e-09 0.000000e+00)	1.044242e+05
7.95          	(3.301163e+01 -2.905966e-09 0.000000e+00)	1.044480e+05
8             	(3.308675e+01 -2.905776e-09 0.000000e+00)	1.044673e+05
8.05          	(3.316277e+01 -2.906137e-09 0.000000e+00)	1.044818e+05
8.1           	(3.323867e+01 -2.907382e-09 0.000000e+00)	1.044914e+05
8.15          	(3.331341e+01 -2.907753e-09 0.000000e+00)	1.044955e+05
8.2           	(3.338597e+01 -2.908296e-09 0.000000e+00)	1.044942e+05
8.25          	(3.345539e+01 -2.908525e-09 0.000000e+00)	1.044875e+05
8.3           	(3.352071e+01 -2.908825e-09 0.000000e+00)	1.044757e+05
8.35          	(3.358105e+01 -2.909165e-09 0.000000e+00)	1.044602e+05
8.4           	(3.363563e+01 -2.909194e-09 0.000000e+00)	1.044400e+05
8.45          	(3.368376e+01 -2.910868e-09 0.000000e+00)	1.044148e+05
8.5           	(3.372478e+01 -2.912726e-09 0.000000e+00)	1.043856e+05
8.55          	(3.375816e+01 -2.911390e-09 0.000000e+00)	1.043525e+05
8.6           	(3.378347e+01 -2.909890e-09 0.000000e+00)	1.043163e+05
8.65          	(3.380035e+01 -2.911494e-09 0.000000e+00)	1.042784e+05
8.7           	(3.380858e+01 -2.910550e-09 0.000000e+00)	1.042391e+05
8.75          	(3.380811e+01 -2.912523e-09 0.000000e+00)	1.041976e+05
8.8           	(3.379892e+01 -2.914726e-09 0.000000e+00)	1.041545e+05
8.85          	(3.378113e+01 -2.913230e-09 0.000000e+00)	1.041110e+05
8.9           	(3.375496e+01 -2.911934e-09 0.000000e+00)	1.040679e+05
8.95          	(3.372075e+01 -2.912079e-09 0.000000e+00)	1.040255e+05
9             	(3.367896e+01 -2.922505e-09 0.000000e+00)	1.039844e+05
9.05          	(3.363015e+01 -2.915015e-09 0.000000e+00)	1.039446e+05
9.1           	(3.357496e+01 -2.914837e-09 0.000000e+00)	1.039061e+05
9.15          	(3.351412e+01 -2.910143e-09 0.000000e+00)	1.038697e+05
9.2           	(3.344840e+01 -2.914243e-09 0.000000e+00)	1.038371e+05
9.25          	(3.337868e+01 -2.913904e-09 0.000000e+00)	1.038086e+05
9.3           	(3.330592e+01 -2.903587e-09 0.000000e+00)	1.037836e+05
9.35          	(3.323110e+01 -2.916745e-09 0.000000e+00)	1.037627e+05
9.4           	(3.315524e+01 -2.915267e-09 0.000000e+00)	1.037459e+05
9.45          	(3.307936e+01 -2.913344e-09 0.000000e+00)	1.037337e+05
9.5           	(3.300449e+01 -2.915322e-09 0.000000e+00)	1.037271e+05
9.55          	(3.293166e+01 -2.915513e-09 0.000000e+00)	1.037265e+05
9.6           	(3.286188e+01 -2.915288e-09 0.000000e+00)	1.037316e+05
9.65          	(3.279615e+01 -2.915851e-09 0.000000e+00)	1.037417e+05
9.7           	(3.273540e+01 -2.915906e-09 0.000000e+00)	1.037570e+05
9.75          	(3.268048e+01 -2.916762e-09 0.000000e+00)	1.037778e+05
9.8           	(3.263216e+01 -2.914754e-09 0.000000e+00)	1.038037e+05
9.85          	(3.259114e+01 -2.914635e-09 0.000000e+00)	1.038343e+05
9.9           	(3.255803e+01 -2.921349e-09 0.000000e+00)	1.038689e+05
9.95          	(3.253331e+01 -2.916508e-09 0.000000e+00)	1.039065e+05
10            	(3.251735e+01 -2.910894e-09 0.000000e+00)	1.039467e+05
10.05         	(3.251035e+01 -2.913361e-09 0.000000e+00)	1.039893e+05
10.1          	(3.251241e+01 -2.915135e-09 0.000000e+00)	1.040344e+05
10.15         	(3.252352e+01 -2.901710e-09 0.000000e+00)	1.040808e+05
10.2          	(3.254353e+01 -2.913599e-09 0.000000e+00)	1.041270e+05
10.25         	(3.257214e+01 -2.917188e-09 0.000000e+00)	1.041727e+05
10.3          	(3.260894e+01 -2.917139e-09 0.000000e+00)	1.042176e+05
10.35         	(3.265339e+01 -2.911330e-09 0.000000e+00)	1.042610e+05
10.4          	(3.270486e+01 -2.914822e-09 0.000000e+00)	1.043020e+05
10.45         	(3.276261e+01 -2.914951e-09 0.000000e+00)	1.043404e+05
10.5          	(3.282582e+01 -2.922685e-09 0.000000e+00)	1.043755e+05
10.55         	(3.289359e+01 -2.919187e-09 0.000000e+00)	1.044065e+05
10.6          	(3.296499e+01 -2.916808e-09 0.000000e+00)	1.044331e+05
10.65         	(3.303898e+01 -2.921020e-09 0.000000e+00)	1.044553e+05
10.7          	(3.311455e+01 -2.915913e-09 0.000000e+00)	1.044729e+05
10.75         	(3.319066e+01 -2.916021e-09 0.000000e+00)	1.044854e+05
10.8          	(3.326625e+01 -2.913855e-09 0.000000e+00)	1.044929e+05
10.85         	(3.334031e+01 -2.916360e-09 0.000000e+00)	1.044951e+05
10.9          	(3.341183e+01 -2.916690e-09 0.000000e+00)	1.044919e+05
10.95         	(3.347984e+01 -2.917238e-09 0.000000e+00)	1.044835e+05
11            	(3.354344e+01 -2.916671e-09 0.000000e+00)	1.044704e+05
11.05         	(3.360176e+01 -2.916390e-09 0.000000e+00)	1.044531e+05
11.1          	(3.365406e+01 -2.918224e-09 0.000000e+00)	1.044309e+05
11.15         	(3.369964e+01 -2.917959e-09 0.000000e+00)	1.044044e+05
11.2          	(3.373792e+01 -2.918338e-09 0.000000e+00)	1.043737e+05
11.25         	(3.376839e+01 -2.918259e-09 0.000000e+00)	1.043395e+05
11.3          	(3.379064e+01 -2.915989e-09 0.000000e+00)	1.043029e+05
11.35         	(3.380437e+01 -2.916820e-09 0.000000e+00)	1.042644e+05
11.4          	(3.380943e+01 -2.907922e-09 0.000000e+00)	1.042239e+05
11.45         	(3.380575e+01 -2.919896e-09 0.000000e+00)	1.041817e+05
11.5          	(3.379339e+01 -2.917790e-09 0.000000e+00)	1.041385e+05
11.55         	(3.377250e+01 -2.917039e-09 0.000000e+00)	1.040950e+05
11.6          	(3.374334e+01 -2.917065e-09 0.000000e+00)	1.040522e+05
11.65         	(3.370630e+01 -2.917834e-09 0.000000e+00)	1.040104e+05
11.7          	(3.366186e+01 -2.916703e-09 0.000000e+00)	1.039696e+05
11.75         	(3.361064e+01 -2.918736e-09 0.000000e+00)	1.039302e+05
11.8          	(3.355328e+01 -2.918920e-09 0.000000e+00)	1.038925e+05
11.85         	(3.349056e+01 -2.917643e-09 0.000000e+00)	1.038577e+05
11.9          	(3.342327e+01 -2.917770e-09 0.000000e+00)	1.038264e+05
11.95         	(3.335233e+01 -2.917436e-09 0.000000e+00)	1.037990e+05
12            	(3.327870e+01 -2.918033e-09 0.000000e+00)	1.037754e+05
12.05         	(3.320338e+01 -2.918725e-09 0.000000e+00)	1.037559e+05
12.1          	(3.312740e+01 -2.918213e-09 0.000000e+00)	1.037404e+05
12.15         	(3.305177e+01 -2.917900e-09 0.000000e+00)	1.037303e+05
12.2          	(3.297752e+01 -2.917934e-09 0.000000e+00)	1.037261e+05
12.25         	(3.290569e+01 -2.919340e-09 0.000000e+00)	1.037275e+05
12.3          	(3.283729e+01 -2.917532e-09 0.000000e+00)	1.037345e+05
12.35         	(3.277328e+01 -2.919261e-09 0.000000e+00)	1.037466e+05
12.4          	(3.271456e+01 -2.909770e-09 0.000000e+00)	1.037640e+05
12.45         	(3.266197e+01 -2.916815e-09 0.000000e+00)	1.037867e+05
12.5          	(3.261625e+01 -2.917274e-09 0.000000e+00)	1.038144e+05
12.55         	(3.257806e+01 -2.912780e-09 0.000000e+00)	1.038466e+05
12.6          	(3.254798e+01 -2.918596e-09 0.000000e+00)	1.038823e+05
12.65         	(3.252644e+01 -2.924641e-09 0.000000e+00)	1.039207e+05
12.7          	(3.251374e+01 -2.910752e-09 0.000000e+00)	1.039618e+05
12.75         	(3.251005e+01 -2.907112e-09 0.000000e+00)	1.040056e+05
12.8          	(3.251544e+01 -2.917104e-09 0.000000e+00)	1.040511e+05
12.85         	(3.252983e+01 -2.917338e-09 0.000000e+00)	1.040976e+05
12.9          	(3.255303e+01 -2.918007e-09 0.000000e+00)	1.041438e+05
12.95         	(3.258470e+01 -2.916897e-09 0.000000e+00)	1.041893e+05
13            	(3.262436e+01 -2.912838e-09 0.000000e+00)	1.042338e+05
13.05         	(3.267146e+01 -2.915514e-09 0.000000e+00)	1.042764e+05
13.1          	(3.272532e+01 -2.915833e-09 0.000000e+00)	1.043166e+05
13.15         	(3.278518e+01 -2.913129e-09 0.000000e+00)	1.043536e+05
13.2          	(3.285016e+01 -2.917790e-09 0.000000e+00)	1.043873e+05
13.25         	(3.291938e+01 -2.918925e-09 0.000000e+00)	1.044169e+05
13.3          	(3.299184e+01 -2.917316e-09 0.000000e+00)	1.044418e+05
13.35         	(3.306653e+01 -2.913048e-09 0.000000e+00)	1.044624e+05
13.4          	(3.314242e+01 -2.916755e-09 0.000000e+00)	1.044782e+05
13.45         	(3.321846e+01 -2.916968e-09 0.000000e+00)	1.044890e+05
13.5          	(3.329361e+01 -2.917438e-09 0.000000e+00)	1.044945e+05
13.55         	(3.336685e+01 -2.917430e-09 0.000000e+00)	1.044946e+05
13.6          	(3.343720e+01 -2.917063e-09 0.000000e+00)	1.044894e+05
13.65         	(3.350370e+01 -2.916967e-09 0.000000e+00)	1.044792e+05
13.7          	(3.356545e+01 -2.917186e-09 0.000000e+00)	1.044647e+05
13.75         	(3.362165e+01 -2.917305e-09 0.000000e+00)	1.044455e+05
13.8          	(3.367157e+01 -2.926488e-09 0.000000e+00)	1.044217e+05
13.85         	(3.371454e+01 -2.918640e-09 0.000000e+00)	1.043935e+05
13.9          	(3.375002e+01 -2.918060e-09 0.000000e+00)	1.043614e+05
13.95         	(3.377751e+01 -2.917065e-09 0.000000e+00)	1.043263e+05
14            	(3.379666e+01 -2.916913e-09 0.000000e+00)	1.042892e+05
14.05         	(3.380723e+01 -2.914783e-09 0.000000e+00)	1.042499e+05
14.1          	(3.380910e+01 -2.919378e-09 0.000000e+00)	1.042086e+05
14.15         	(3.380223e+01 -2.919270e-09 0.000000e+00)	1.041660e+05
14.2          	(3.378672e+01 -2.922169e-09 0.000000e+00)	1.041226e+05
14.25         	(3.376276e+01 -2.917363e-09 0.000000e+00)	1.040793e+05
14.3          	(3.373066e+01 -2.917639e-09 0.000000e+00)	1.040369e+05
14.35         	(3.369084e+01 -2.926992e-09 0.000000e+00)	1.039954e+05
14.4          	(3.364386e+01 -2.918543e-09 0.000000e+00)	1.039549e+05
14.45         	(3.359031e+01 -2.919367e-09 0.000000e+00)	1.039159e+05
14.5          	(3.353089e+01 -2.922946e-09 0.000000e+00)	1.038792e+05
14.55         	(3.346639e+01 -2.917669e-09 0.000000e+00)	1.038458e+05
14.6          	(3.339766e+01 -2.917995e-09 0.000000e+00)	1.038159e+05
14.65         	(3.332562e+01 -2.916916e-09 0.000000e+00)	1.037899e+05
14.7          	(3.325125e+01 -2.918647e-09 0.000000e+00)	1.037678e+05
14.75         	(3.317557e+01 -2.918453e-09 0.000000e+00)	1.037497e+05
14.8          	(3.309960e+01 -2.916282e-09 0.000000e+00)	1.037361e+05
14.85         	(3.302435e+01 -2.918155e-09 0.000000e+00)	1.037283e+05
14.9          	(3.295087e+01 -2.918233e-09 0.000000e+00)	1.037262e+05
14.95         	(3.288018e+01 -2.917229e-09 0.000000e+00)	1.037294e+05
15            	(3.281328e+01 -2.917862e-09 0.000000e+00)	1.037382e+05
15.05         	(3.275111e+01 -2.928639e-09 0.000000e+00)	1.037524e+05
15.1          	(3.269454e+01 -2.918427e-09 0.000000e+00)	1.037718e+05
15.15         	(3.264439e+01 -2.917325e-09 0.000000e+00)	1.037963e+05
15.2          	(3.260135e+01 -2.918327e-09 0.000000e+00)	1.038258e+05
15.25         	(3.256607e+01 -2.915815e-09 0.000000e+00)	1.038595e+05
15.3          	(3.253908e+01 -2.919135e-09 0.000000e+00)	1.038961e+05
15.35         	(3.252075e+01 -2.910178e-09 0.000000e+00)	1.039355e+05
15.4          	(3.251133e+01 -2.917365e-09 0.000000e+00)	1.039779e+05
15.45         	(3.251097e+01 -2.913976e-09 0.000000e+00)	1.040224e+05
15.5          	(3.251967e+01 -2.904905e-09 0.000000e+00)	1.040683e+05
15.55         	(3.253732e+01 -2.922937e-09 0.000000e+00)	1.041146e+05
15.6          	(3.256367e+01 -2.924269e-09 0.000000e+00)	1.041605e+05
15.65         	(3.259832e+01 -2.907486e-09 0.000000e+00)	1.042058e+05
15.7          	(3.264079e+01 -2.909245e-09 0.000000e+00)	1.042496e+05
15.75         	(3.269045e+01 -2.913771e-09 0.000000e+00)	1.042914e+05
15.8          	(3.274660e+01 -2.915750e-09 0.000000e+00)	1.043305e+05
15.85         	(3.280844e+01 -2.929563e-09 0.000000e+00)	1.043663e+05
15.9          	(3.287508e+01 -2.916981e-09 0.000000e+00)	1.043985e+05
15.95         	(3.294560e+01 -2.918795e-09 0.000000e+00)	1.044263e+05
16            	(3.301900e+01 -2.918733e-09 0.000000e+00)	1.044499e+05
16.05         	(3.309425e+01 -2.916921e-09 0.000000e+00)	1.044687e+05
16.1          	(3.317032e+01 -2.917030e-09 0.000000e+00)	1.044826e+05
16.15         	(3.324615e+01 -2.917393e-09 0.000000e+00)	1.044914e+05
16.2          	(3.332072e+01 -2.917438e-09 0.000000e+00)	1.044949e+05
16.25         	(3.339302e+01 -2.917422e-09 0.000000e+00)	1.044930e+05
16.3          	(3.346206e+01 -2.915947e-09 0.000000e+00)	1.044860e+05
16.35         	(3.352692e+01 -2.917429e-09 0.000000e+00)	1.044744e+05
16.4          	(3.358672e+01 -2.916724e-09 0.000000e+00)	1.044583e+05
16.45         	(3.364071e+01 -2.926893e-09 0.000000e+00)	1.044372e+05
16.5          	(3.368815e+01 -2.918413e-09 0.000000e+00)	1.044117e+05
16.55         	(3.372844e+01 -2.917961e-09 0.000000e+00)	1.043821e+05
16.6          	(3.376104e+01 -2.921444e-09 0.000000e+00)	1.043489e+05
16.65         	(3.378551e+01 -2.916086e-09 0.000000e+00)	1.043131e+05
16.7          	(3.380153e+01 -2.921115e-09 0.000000e+00)	1.042752e+05
16.75         	(3.380893e+01 -2.917427e-09 0.000000e+00)	1.042348e+05
16.8          	(3.380760e+01 -2.920024e-09 0.000000e+00)	1.041929e+05
16.85         	(3.379755e+01 -2.918099e-09 0.000000e+00)	1.041499e+05
16.9          	(3.377891e+01 -2.917501e-09 0.000000e+00)	1.041065e+05
16.95         	(3.375192e+01 -2.917643e-09 0.000000e+00)	1.040638e+05
17            	(3.371694e+01 -2.917553e-09 0.000000e+00)	1.040218e+05
17.05         	(3.367444e+01 -2.918342e-09 0.000000e+00)	1.039804e+05
17.1          	(3.362497e+01 -2.918825e-09 0.000000e+00)	1.039403e+05
17.15         	(3.356919e+01 -2.930332e-09 0.000000e+00)	1.039021e+05
17.2          	(3.350781e+01 -2.917951e-09 0.000000e+00)	1.038667e+05
17.25         	(3.344165e+01 -2.917174e-09 0.000000e+00)	1.038347e+05
17.3          	(3.337160e+01 -2.915653e-09 0.000000e+00)	1.038061e+05
17.35         	(3.329860e+01 -2.918753e-09 0.000000e+00)	1.037814e+05
17.4          	(3.322363e+01 -2.918535e-09 0.000000e+00)	1.037607e+05
17.45         	(3.314772e+01 -2.923205e-09 0.000000e+00)	1.037441e+05
17.5          	(3.307189e+01 -2.918024e-09 0.000000e+00)	1.037328e+05
17.55         	(3.299716e+01 -2.918194e-09 0.000000e+00)	1.037272e+05
17.6          	(3.292459e+01 -2.919302e-09 0.000000e+00)	1.037269e+05
17.65         	(3.285518e+01 -2.917996e-09 0.000000e+00)	1.037321e+05
17.7          	(3.278991e+01 -2.920060e-09 0.000000e+00)	1.037428e+05
17.75         	(3.272969e+01 -2.915237e-09 0.000000e+00)	1.037589e+05
17.8          	(3.267538e+01 -2.917457e-09 0.000000e+00)	1.037803e+05
17.85         	(3.262775e+01 -2.917827e-09 0.000000e+00)	1.038068e+05
17.9          	(3.258749e+01 -2.910505e-09 0.000000e+00)	1.038378e+05
17.95         	(3.255520e+01 -2.918272e-09 0.000000e+00)	1.038724e+05
18            	(3.253135e+01 -2.921720e-09 0.000000e+00)	1.039099e+05
18.05         	(3.251626e+01 -2.910347e-09 0.000000e+00)	1.039505e+05
18.1          	(3.251015e+01 -2.911328e-09 0.000000e+00)	1.039937e+05
18.15         	(3.251311e+01 -2.910200e-09 0.000000e+00)	1.040388e+05
18.2          	(3.252511e+01 -2.914401e-09 0.000000e+00)	1.040851e+05
18.25         	(3.254599e+01 -2.919199e-09 0.000000e+00)	1.041313e+05
18.3          	(3.257543e+01 -2.905362e-09 0.000000e+00)	1.041771e+05
18.35         	(3.261301e+01 -2.903107e-09 0.000000e+00)	1.042219e+05
18.4          	(3.265818e+01 -2.917361e-09 0.000000e+00)	1.042652e+05
18.45         	(3.271030e+01 -2.915921e-09 0.000000e+00)	1.043061e+05
18.5          	(3.276864e+01 -2.916301e-09 0.000000e+00)	1.043439e+05
18.55         	(3.283234e+01 -2.918010e-09 0.000000e+00)	1.043786e+05
18.6          	(3.290052e+01 -2.919919e-09 0.000000e+00)	1.044093e+05
18.65         	(3.297221e+01 -2.917206e-09 0.000000e+00)	1.044355e+05
18.7          	(3.304640e+01 -2.916898e-09 0.000000e+00)	1.044574e+05
18.75         	(3.312207e+01 -2.910080e-09 0.000000e+00)	1.044745e+05
18.8          	(3.319817e+01 -2.917330e-09 0.000000e+00)	1.044866e+05
18.85         	(3.327367e+01 -2.917512e-09 0.000000e+00)	1.044933e+05
18.9          	(3.334753e+01 -2.917439e-09 0.000000e+00)	1.044947e+05
18.95         	(3.341874e+01 -2.916918e-09 0.000000e+00)	1.044910e+05
19            	(3.348635e+01 -2.917459e-09 0.000000e+00)	1.044824e+05
19.05         	(3.354945e+01 -2.917046e-09 0.000000e+00)	1.044692e+05
19.1          	(3.360721e+01 -2.920818e-09 0.000000e+00)	1.044510e+05
19.15         	(3.365888e+01 -2.919199e-09 0.000000e+00)	1.044284e+05
19.2          	(3.370377e+01 -2.914085e-09 0.000000e+00)	1.044014e+05
19.25         	(3.374130e+01 -2.910665e-09 0.000000e+00)	1.043703e+05
19.3          	(3.377096e+01 -2.917697e-09 0.000000e+00)	1.043362e+05
19.35         	(3.379236e+01 -2.916648e-09 0.000000e+00)	1.042997e+05
19.4          	(3.380526e+01 -2.928366e-09 0.000000e+00)	1.042606e+05
19.45         	(3.380946e+01 -2.919432e-09 0.000000e+00)	1.042195e+05
19.5          	(3.380493e+01 -2.915945e-09 0.000000e+00)	1.041771e+05
19.55         	(3.379171e+01 -2.924191e-09 0.000000e+00)	1.041339e+05
19.6          	(3.376998e+01 -2.917902e-09 0.000000e+00)	1.040909e+05
19.65         	(3.374001e+01 -2.917240e-09 0.000000e+00)	1.040484e+05
19.7          	(3.370221e+01 -2.929479e-09 0.000000e+00)	1.040065e+05
19.75         	(3.365709e+01 -2.918974e-09 0.000000e+00)	1.039654e+05
19.8          	(3.360524e+01 -2.918478e-09 0.000000e+00)	1.039258e+05
19.85         	(3.354732e+01 -2.925171e-09 0.000000e+00)	1.038886e+05
19.9          	(3.348408e+01 -2.917983e-09 0.000000e+00)	1.038545e+05
19.95         	(3.341639e+01 -2.911169e-09 0.000000e+00)	1.038239e+05
20            	(3.334515e+01 -2.918514e-09 0.000000e+00)	1.037966e+05
