# Probe 0 (-0.1 -0.0025 0.0005)
# Probe 1 (0.1 -0.0025 0.0005)
# Probe 2 (0 -0.0025 0.0005)
# Probe 3 (0 0.025 0.0005)
# Probe 4 (0 0.09 0.0005)
#       Probe             0             1             2             3             4
#        Time
            1        104293        101603        103251        103072        102669
         1.05        104175        101599        103151        102965        102556
          1.1        104050        101596        103046        102854        102450
         1.15        103964        101593        102981        102781        102358
          1.2        103871        101590        102905        102679        102281
         1.25        103801        101588        102847        102608        102225
          1.3        103764        101587        102821        102581        102176
         1.35        103710        101586        102770        102526        102135
          1.4        103673        101585        102740        102493        102097
         1.45        103654        101586        102717        102469        102061
          1.5        103618        101586        102683        102431        102041
         1.55        103616        101587        102684        102429        102028
          1.6        103627        101589        102686        102425        102015
         1.65        103620        101591        102668        102404        102002
          1.7        103631        101594        102672        102405        101991
         1.75        103641        101597        102670        102402        101988
          1.8        103655        101601        102674        102405        101995
         1.85        103680        101604        102684        102416        102000
          1.9        103699        101609        102685        102414        102007
         1.95        103727        101613        102700        102427        102018
            2        103770        101618        102726        102452        102030
         2.05        103792        101622        102731        102455        102045
          2.1        103826        101627        102747        102469        102064
         2.15        103868        101632        102770        102491        102086
          2.2        103903        101636        102788        102509        102108
         2.25        103956        101641        102824        102549        102129
          2.3        103994        101645        102844        102571        102145
         2.35        104018        101649        102853        102579        102165
          2.4        104047        101652        102871        102594        102187
         2.45        104083        101655        102891        102613        102208
          2.5        104113        101658        102911        102635        102226
         2.55        104151        101660        102940        102664        102239
          2.6        104164        101662        102944        102666        102248
         2.65        104170        101663        102948        102669        102261
          2.7        104184        101664        102958        102681        102273
         2.75        104192        101664        102965        102687        102282
          2.8        104199        101664        102974        102694        102288
         2.85        104208        101663        102985        102707        102287
          2.9        104193        101661        102974        102699        102283
         2.95        104176        101660        102965        102691        102280
            3        104162        101657        102960        102686        102275
         3.05        104142        101654        102951        102679        102268
          3.1        104124        101651        102946        102676        102257
         3.15        104102        101648        102936        102667        102242
          3.2        104065        101644        102914        102645        102226
         3.25        104030        101640        102895        102627        102211
          3.3        103996        101635        102877        102609        102193
         3.35        103961        101631        102858        102591        102175
          3.4        103929        101626        102843        102577        102154
         3.45        103890        101622        102822        102556        102132
          3.5        103846        101617        102796        102529        102110
         3.55        103805        101613        102773        102505        102089
          3.6        103767        101609        102752        102483        102067
         3.65        103731        101605        102732        102463        102047
          3.7        103699        101601        102715        102447        102024
         3.75        103663        101597        102692        102424        102002
          3.8        103627        101594        102669        102400        101982
         3.85        103598        101591        102650        102381        101964
          3.9        103572        101589        102634        102364        101947
         3.95        103552        101587        102621        102351        101932
            4        103536        101586        102611        102340        101917
         4.05        103519        101585        102597        102325        101904
          4.1        103505        101585        102585        102312        101894
         4.15        103499        101585        102578        102305        101888
          4.2        103499        101586        102576        102302        101884
         4.25        103506        101588        102578        102302        101884
          4.3        103516        101590        102581        102304        101885
         4.35        103527        101592        102583        102305        101889
          4.4        103544        101595        102589        102311        101898
         4.45        103568        101598        102601        102321        101909
          4.5        103596        101602        102616        102334        101923
         4.55        103630        101606        102635        102351        101938
          4.6        103664        101610        102652        102368        101954
         4.65        103697        101615        102668        102383        101973
          4.7        103734        101619        102687        102401        101994
         4.75        103776        101624        102711        102423        102017
          4.8        103819        101629        102735        102446        102039
         4.85        103862        101633        102759        102470        102062
          4.9        103902        101638        102782        102493        102084
         4.95        103939        101642        102803        102512        102107
            5        103977        101646        102824        102533        102130
         5.05        104014        101650        102846        102556        102152
          5.1        104049        101653        102868        102578        102172
         5.15        104081        101656        102888        102599        102190
          5.2        104107        101659        102904        102616        102207
         5.25        104129        101661        102917        102630        102222
          5.3        104147        101663        102929        102643        102235
         5.35        104163        101664        102940        102655        102247
          5.4        104175        101664        102949        102666        102256
         5.45        104181        101664        102956        102674        102262
          5.5        104183        101664        102959        102678        102265
         5.55        104179        101662        102959        102680        102266
          5.6        104170        101661        102956        102678        102264
         5.65        104157        101659        102951        102674        102261
          5.7        104142        101656        102945        102670        102254
         5.75        104123        101653        102937        102662        102245
          5.8        104099        101650        102925        102652        102234
         5.85        104070        101646        102911        102638        102220
          5.9        104039        101642        102894        102623        102205
         5.95        104006        101638        102877        102606        102189
            6        103972        101634        102860        102590        102171
         6.05        103936        101629        102842        102572        102152
          6.1        103899        101625        102822        102552        102132
         6.15        103860        101620        102800        102531        102112
          6.2        103820        101616        102778        102509        102091
         6.25        103782        101611        102757        102488        102070
          6.3        103746        101607        102737        102468        102048
         6.35        103709        101603        102716        102448        102027
          6.4        103674        101599        102695        102426        102005
         6.45        103640        101596        102675        102405        101985
          6.5        103609        101593        102655        102385        101966
         6.55        103581        101591        102638        102368        101948
          6.6        103558        101588        102623        102352        101932
         6.65        103537        101587        102609        102338        101917
          6.7        103520        101586        102596        102324        101903
         6.75        103506        101585        102585        102313        101893
          6.8        103497        101585        102577        102304        101885
         6.85        103494        101586        102573        102299        101880
          6.9        103496        101587        102571        102296        101878
         6.95        103503        101588        102573        102296        101878
            7        103514        101590        102576        102298        101882
         7.05        103530        101593        102582        102303        101888
          7.1        103550        101596        102592        102311        101898
         7.15        103576        101599        102605        102322        101910
          7.2        103605        101603        102620        102337        101923
         7.25        103638        101607        102637        102353        101939
          7.3        103672        101612        102654        102370        101957
         7.35        103709        101616        102674        102388        101977
          7.4        103749        101621        102695        102408        101999
         7.45        103790        101626        102718        102430        102021
          7.5        103831        101630        102742        102453        102044
         7.55        103873        101635        102765        102477        102067
          7.6        103913        101639        102788        102499        102090
         7.65        103953        101644        102810        102522        102113
          7.7        103990        101648        102832        102544        102135
         7.75        104026        101651        102854        102566        102157
          7.8        104059        101655        102874        102586        102177
         7.85        104089        101657        102892        102605        102195
          7.9        104114        101660        102908        102622        102212
         7.95        104136        101662        102922        102637        102227
            8        104154        101663        102934        102650        102239
         8.05        104168        101664        102944        102661        102250
          8.1        104177        101664        102951        102669        102257
         8.15        104181        101664        102956        102675        102262
          8.2        104181        101663        102958        102678        102265
         8.25        104176        101662        102958        102679        102265
          8.3        104166        101660        102954        102677        102262
         8.35        104153        101658        102949        102673        102258
          8.4        104135        101655        102942        102667        102250
         8.45        104113        101652        102932        102658        102240
          8.5        104088        101649        102919        102646        102227
         8.55        104059        101645        102904        102633        102213
          8.6        104027        101641        102888        102617        102198
         8.65        103993        101636        102871        102600        102181
          8.7        103959        101632        102853        102583        102163
         8.75        103922        101628        102833        102564        102144
          8.8        103883        101623        102813        102544        102124
         8.85        103845        101618        102792        102523        102103
          8.9        103806        101614        102770        102502        102082
         8.95        103768        101610        102749        102481        102061
            9        103732        101606        102728        102460        102039
         9.05        103696        101602        102708        102439        102018
          9.1        103661        101598        102687        102418        101997
         9.15        103628        101595        102667        102398        101977
          9.2        103598        101592        102649        102379        101959
         9.25        103572        101590        102632        102362        101941
          9.3        103549        101588        102617        102346        101925
         9.35        103530        101586        102604        102332        101911
          9.4        103514        101585        102592        102320        101899
         9.45        103502        101585        102582        102309        101889
          9.5        103495        101585        102575        102302        101882
         9.55        103494        101586        102572        102297        101878
          9.6        103498        101587        102571        102295        101877
         9.65        103506        101589        102573        102296        101878
          9.7        103519        101591        102578        102299        101883
         9.75        103537        101594        102586        102306        101890
          9.8        103559        101597        102596        102315        101901
         9.85        103586        101601        102610        102327        101913
          9.9        103616        101605        102625        102342        101928
         9.95        103650        101609        102642        102358        101945
           10        103685        101613        102661        102375        101963
        10.05        103723        101618        102681        102395        101984
         10.1        103763        101623        102703        102416        102006
        10.15        103805        101627        102726        102439        102028
         10.2        103846        101632        102749        102461        102051
        10.25        103887        101637        102773        102484        102074
         10.3        103927        101641        102796        102507        102098
        10.35        103966        101645        102818        102530        102120
         10.4        104003        101649        102840        102552        102143
        10.45        104038        101653        102861        102573        102163
         10.5        104070        101656        102880        102593        102183
        10.55        104098        101658        102898        102611        102201
         10.6        104122        101661        102913        102627        102217
        10.65        104143        101662        102926        102641        102231
         10.7        104159        101663        102938        102654        102242
        10.75        104171        101664        102947        102664        102252
         10.8        104179        101664        102953        102671        102259
        10.85        104181        101664        102957        102676        102263
         10.9        104179        101663        102958        102679        102264
        10.95        104172        101661        102956        102678        102264
           11        104161        101659        102953        102676        102260
        11.05        104147        101657        102947        102671        102254
         11.1        104127        101654        102938        102664        102246
        11.15        104104        101651        102927        102654        102235
         11.2        104077        101647        102914        102641        102222
        11.25        104047        101643        102899        102627        102207
         11.3        104015        101639        102882        102611        102191
        11.35        103981        101635        102865        102595        102174
         11.4        103945        101630        102846        102576        102155
        11.45        103908        101626        102826        102557        102136
         11.5        103869        101621        102805        102536        102116
        11.55        103830        101617        102784        102515        102095
         11.6        103792        101612        102763        102494        102074
        11.65        103755        101608        102742        102473        102052
         11.7        103718        101604        102721        102452        102031
        11.75        103683        101600        102700        102431        102010
         11.8        103649        101597        102680        102411        101990
        11.85        103617        101594        102660        102391        101970
         11.9        103588        101591        102643        102373        101952
        11.95        103563        101589        102627        102356        101935
           12        103542        101587        102612        102341        101920
        12.05        103523        101586        102599        102327        101906
         12.1        103509        101585        102587        102315        101894
        12.15        103499        101585        102579        102306        101886
         12.2        103494        101585        102573        102300        101880
        12.25        103494        101586        102571        102296        101877
         12.3        103500        101588        102571        102295        101876
        12.35        103510        101590        102574        102297        101879
         12.4        103525        101592        102580        102301        101885
        12.45        103544        101595        102589        102309        101894
         12.5        103569        101598        102601        102319        101905
        12.55        103597        101602        102615        102332        101918
         12.6        103628        101606        102631        102347        101933
        12.65        103662        101611        102649        102364        101951
         12.7        103699        101615        102668        102382        101971
        12.75        103738        101620        102689        102402        101992
         12.8        103778        101624        102711        102424        102014
        12.85        103820        101629        102735        102447        102037
         12.9        103861        101634        102758        102470        102060
        12.95        103902        101638        102781        102493        102083
           13        103942        101643        102804        102516        102106
        13.05        103980        101647        102826        102538        102129
         13.1        104016        101650        102848        102560        102150
        13.15        104050        101654        102868        102580        102171
         13.2        104081        101657        102887        102600        102190
        13.25        104108        101659        102903        102617        102207
         13.3        104131        101661        102918        102633        102222
        13.35        104150        101663        102931        102646        102235
         13.4        104164        101664        102941        102658        102246
        13.45        104175        101664        102949        102667        102255
         13.5        104180        101664        102955        102674        102260
        13.55        104181        101663        102958        102678        102264
         13.6        104177        101662        102958        102679        102264
        13.65        104169        101661        102955        102678        102263
         13.7        104156        101658        102951        102674        102258
        13.75        104140        101656        102944        102669        102251
         13.8        104119        101653        102934        102660        102242
        13.85        104095        101650        102923        102649        102230
         13.9        104066        101646        102908        102636        102217
        13.95        104036        101642        102893        102621        102202
           14        104003        101638        102876        102605        102185
        14.05        103968        101633        102858        102588        102167
         14.1        103931        101629        102839        102569        102148
        14.15        103894        101624        102818        102549        102128
         14.2        103855        101620        102797        102528        102108
        14.25        103816        101615        102776        102507        102087
         14.3        103779        101611        102755        102487        102066
        14.35        103741        101607        102734        102466        102044
         14.4        103705        101603        102713        102445        102023
        14.45        103670        101599        102692        102424        102002
         14.5        103637        101596        102672        102403        101982
        14.55        103606        101593        102654        102384        101963
         14.6        103579        101590        102636        102367        101946
        14.65        103555        101588        102621        102350        101929
         14.7        103534        101587        102607        102336        101914
        14.75        103517        101586        102594        102323        101901
         14.8        103504        101585        102584        102312        101891
        14.85        103496        101585        102577        102303        101883
         14.9        103494        101586        102572        102298        101878
        14.95        103496        101587        102571        102295        101876
           15        103503        101588        102572        102295        101877
        15.05        103515        101591        102576        102298        101881
         15.1        103531        101593        102583        102304        101888
        15.15        103553        101596        102593        102312        101898
         15.2        103579        101600        102606        102324        101910
        15.25        103608        101604        102621        102338        101924
         15.3        103640        101608        102637        102353        101940
        15.35        103675        101612        102656        102371        101958
         15.4        103713        101617        102676        102390        101978
        15.45        103753        101621        102697        102411        102000
         15.5        103793        101626        102720        102433        102022
        15.55        103835        101631        102743        102455        102045
         15.6        103876        101635        102766        102478        102068
        15.65        103917        101640        102790        102501        102091
         15.7        103956        101644        102812        102524        102114
        15.75        103994        101648        102834        102546        102137
         15.8        104029        101652        102855        102568        102158
        15.85        104062        101655        102875        102588        102178
         15.9        104091        101658        102893        102606        102196
        15.95        104116        101660        102909        102623        102212
           16        104138        101662        102923        102638        102227
        16.05        104155        101663        102935        102651        102240
         16.1        104169        101664        102944        102661        102250
        16.15        104177        101664        102951        102669        102257
         16.2        104181        101664        102956        102675        102262
        16.25        104180        101663        102958        102678        102264
         16.3        104174        101662        102957        102678        102264
        16.35        104165        101660        102954        102677        102261
         16.4        104151        101658        102949        102673        102256
        16.45        104133        101655        102941        102666        102248
         16.5        104111        101652        102930        102656        102238
        16.55        104085        101648        102917        102645        102226
         16.6        104056        101644        102903        102631        102211
        16.65        104024        101640        102887        102616        102196
         16.7        103991        101636        102870        102599        102179
        16.75        103955        101632        102851        102581        102160
         16.8        103918        101627        102831        102562        102141
        16.85        103879        101623        102810        102541        102121
         16.9        103841        101618        102789        102521        102100
        16.95        103803        101614        102768        102500        102079
           17        103765        101609        102748        102479        102058
        17.05        103728        101605        102726        102458        102037
         17.1        103692        101601        102705        102437        102016
        17.15        103657        101598        102685        102416        101995
         17.2        103625        101595        102665        102396        101976
        17.25        103596        101592        102647        102378        101957
         17.3        103570        101590        102631        102361        101939
        17.35        103547        101588        102616        102345        101924
         17.4        103528        101586        102602        102331        101909
        17.45        103512        101585        102590        102318        101897
         17.5        103501        101585        102581        102309        101888
        17.55        103495        101585        102575        102302        101881
         17.6        103494        101586        102571        102297        101877
        17.65        103498        101587        102571        102295        101876
         17.7        103507        101589        102573        102296        101878
        17.75        103520        101591        102578        102300        101883
         17.8        103539        101594        102587        102307        101891
        17.85        103562        101598        102598        102316        101901
         17.9        103589        101601        102611        102329        101914
        17.95        103620        101605        102627        102343        101929
           18        103653        101609        102644        102359        101946
        18.05        103689        101614        102663        102377        101965
         18.1        103727        101618        102683        102397        101986
        18.15        103767        101623        102705        102418        102008
         18.2        103808        101628        102728        102441        102030
        18.25        103850        101633        102751        102463        102053
         18.3        103891        101637        102775        102486        102077
        18.35        103931        101641        102798        102509        102100
         18.4        103970        101646        102820        102532        102123
        18.45        104007        101649        102842        102554        102145
         18.5        104041        101653        102863        102575        102165
        18.55        104073        101656        102882        102595        102185
         18.6        104101        101659        102899        102613        102202
        18.65        104125        101661        102914        102629        102218