# Probe 0 (-0.1 -0.0025 0.0005)
# Probe 1 (0.1 -0.0025 0.0005)
# Probe 2 (0 -0.0025 0.0005)
# Probe 3 (0 0.025 0.0005)
# Probe 4 (0 0.09 0.0005)
#       Probe             0             1             2             3             4
#        Time
            1        104267        101578        103226        103319        102670
         1.05        104150        101574        103126        103210        102557
          1.1        104025        101571        103021        103103        102451
         1.15        103939        101568        102956        103009        102359
          1.2        103846        101565        102880        102898        102282
         1.25        103776        101563        102822        102834        102226
          1.3        103739        101562        102796        102827        102177
         1.35        103685        101561        102745        102771        102136
          1.4        103648        101560        102715        102737        102098
         1.45        103629        101560        102692        102713        102062
          1.5        103593        101561        102658        102670        102042
         1.55        103591        101562        102658        102658        102030
          1.6        103602        101564        102661        102652        102016
         1.65        103595        101566        102643        102647        102003
          1.7        103606        101569        102647        102653        101992
         1.75        103616        101572        102645        102651        101989
          1.8        103630        101575        102649        102655        101996
         1.85        103655        101579        102659        102667        102001
          1.9        103674        101584        102660        102665        102008
         1.95        103702        101588        102675        102679        102019
            2        103745        101593        102700        102704        102031
         2.05        103767        101597        102705        102707        102046
          2.1        103801        101602        102722        102721        102065
         2.15        103843        101606        102745        102742        102087
          2.2        103878        101611        102763        102756        102109
         2.25        103931        101616        102799        102794        102130
          2.3        103969        101620        102819        102810        102146
         2.35        103993        101624        102828        102828        102166
          2.4        104022        101627        102846        102846        102188
         2.45        104058        101630        102865        102860        102209
          2.5        104088        101633        102886        102884        102227
         2.55        104126        101635        102915        102915        102241
          2.6        104139        101637        102919        102918        102249
         2.65        104145        101638        102923        102920        102262
          2.7        104159        101639        102933        102930        102274
         2.75        104167        101639        102940        102936        102283
          2.8        104174        101639        102948        102946        102289
         2.85        104183        101638        102960        102958        102288
          2.9        104168        101636        102949        102950        102284
         2.95        104151        101634        102940        102943        102282
            3        104137        101632        102935        102934        102277
         3.05        104117        101629        102926        102923        102269
          3.1        104099        101626        102921        102925        102258
         3.15        104077        101622        102911        102919        102243
          3.2        104040        101619        102889        102895        102227
         3.25        104005        101615        102870        102876        102212
          3.3        103971        101610        102852        102860        102194
         3.35        103936        101606        102833        102841        102176
          3.4        103903        101601        102818        102828        102155
         3.45        103865        101597        102797        102808        102133
          3.5        103821        101592        102771        102780        102112
         3.55        103780        101588        102747        102756        102090
          3.6        103742        101584        102727        102735        102069
         3.65        103706        101579        102707        102715        102048
          3.7        103674        101576        102690        102698        102026
         3.75        103638        101572        102667        102676        102003
          3.8        103602        101569        102644        102652        101983
         3.85        103573        101566        102625        102633        101965
          3.9        103547        101564        102609        102616        101948
         3.95        103527        101562        102596        102603        101933
            4        103511        101561        102586        102592        101918
         4.05        103494        101560        102571        102575        101905
          4.1        103480        101560        102560        102562        101895
         4.15        103474        101560        102553        102554        101889
          4.2        103474        101561        102551        102550        101886
         4.25        103481        101562        102553        102550        101885
          4.3        103491        101564        102556        102550        101886
         4.35        103502        101567        102558        102549        101890
          4.4        103518        101570        102564        102558        101899
         4.45        103542        101573        102576        102568        101910
          4.5        103571        101577        102591        102582        101924
         4.55        103605        101581        102610        102601        101939
          4.6        103639        101585        102627        102619        101955
         4.65        103672        101589        102643        102634        101974
          4.7        103709        101594        102662        102652        101995
         4.75        103751        101599        102685        102674        102018
          4.8        103794        101604        102710        102698        102040
         4.85        103837        101608        102734        102721        102063
          4.9        103876        101613        102757        102743        102085
         4.95        103914        101617        102778        102764        102108
            5        103952        101621        102799        102785        102131
         5.05        103989        101625        102821        102807        102153
          5.1        104024        101628        102843        102830        102173
         5.15        104056        101631        102863        102851        102191
          5.2        104082        101634        102878        102868        102208
         5.25        104104        101636        102892        102882        102223
          5.3        104122        101638        102904        102895        102236
         5.35        104138        101639        102915        102906        102248
          5.4        104149        101639        102924        102917        102257
         5.45        104156        101639        102931        102925        102263
          5.5        104158        101638        102934        102929        102266
         5.55        104154        101637        102934        102930        102267
          5.6        104145        101636        102930        102928        102265
         5.65        104132        101634        102926        102925        102262
          5.7        104117        101631        102920        102922        102255
         5.75        104098        101628        102912        102914        102246
          5.8        104074        101625        102900        102903        102235
         5.85        104045        101621        102886        102890        102221
          5.9        104014        101617        102869        102874        102206
         5.95        103981        101613        102852        102857        102190
            6        103947        101609        102835        102842        102173
         6.05        103911        101604        102817        102824        102153
          6.1        103874        101600        102797        102804        102133
         6.15        103835        101595        102775        102783        102113
          6.2        103795        101591        102753        102761        102092
         6.25        103757        101586        102732        102740        102071
          6.3        103720        101582        102712        102720        102049
         6.35        103684        101578        102691        102700        102028
          6.4        103649        101574        102670        102678        102007
         6.45        103615        101571        102649        102657        101986
          6.5        103584        101568        102630        102637        101967
         6.55        103556        101565        102613        102619        101949
          6.6        103532        101563        102598        102604        101933
         6.65        103512        101562        102584        102590        101918
          6.7        103495        101561        102571        102576        101905
         6.75        103481        101560        102560        102564        101894
          6.8        103472        101560        102552        102556        101886
         6.85        103469        101561        102548        102550        101881
          6.9        103471        101562        102546        102547        101879
         6.95        103478        101563        102548        102548        101879
            7        103489        101565        102551        102550        101883
         7.05        103504        101568        102557        102555        101889
          7.1        103525        101571        102567        102563        101899
         7.15        103551        101574        102580        102574        101911
          7.2        103580        101578        102595        102588        101925
         7.25        103613        101582        102612        102605        101940
          7.3        103647        101587        102629        102621        101958
         7.35        103684        101591        102649        102640        101978
          7.4        103723        101596        102670        102660        102000
         7.45        103764        101601        102693        102682        102022
          7.5        103806        101605        102717        102705        102045
         7.55        103848        101610        102740        102728        102068
          7.6        103888        101614        102763        102751        102091
         7.65        103927        101619        102785        102774        102114
          7.7        103965        101623        102807        102796        102137
         7.75        104001        101626        102829        102817        102158
          7.8        104034        101629        102849        102838        102178
         7.85        104064        101632        102867        102856        102196
          7.9        104089        101635        102883        102873        102213
         7.95        104111        101637        102897        102888        102228
            8        104129        101638        102909        102901        102240
         8.05        104143        101639        102919        102912        102251
          8.1        104152        101639        102926        102921        102258
         8.15        104156        101639        102931        102927        102263
          8.2        104156        101638        102933        102930        102266
         8.25        104151        101637        102932        102931        102266
          8.3        104141        101635        102929        102929        102263
         8.35        104128        101633        102924        102925        102259
          8.4        104110        101630        102917        102919        102251
         8.45        104088        101627        102907        102910        102241
          8.5        104063        101623        102894        102898        102229
         8.55        104034        101620        102879        102885        102215
          8.6        104002        101616        102863        102869        102199
         8.65        103968        101611        102846        102852        102182
          8.7        103933        101607        102828        102835        102164
         8.75        103897        101602        102808        102816        102145
          8.8        103858        101598        102788        102796        102125
         8.85        103820        101593        102766        102775        102104
          8.9        103781        101589        102745        102753        102083
         8.95        103743        101585        102724        102733        102062
            9        103706        101581        102703        102712        102040
         9.05        103671        101577        102683        102691        102019
          9.1        103636        101573        102662        102670        101998
         9.15        103603        101570        102642        102650        101978
          9.2        103573        101567        102624        102631        101960
         9.25        103547        101565        102607        102614        101942
          9.3        103524        101563        102592        102598        101926
         9.35        103505        101561        102579        102584        101912
          9.4        103489        101560        102567        102572        101900
         9.45        103477        101560        102557        102561        101890
          9.5        103470        101560        102550        102553        101883
         9.55        103469        101561        102546        102549        101879
          9.6        103472        101562        102546        102547        101878
         9.65        103481        101564        102548        102548        101879
          9.7        103494        101566        102553        102551        101884
         9.75        103512        101569        102560        102558        101891
          9.8        103534        101572        102571        102567        101902
         9.85        103561        101576        102584        102579        101914
          9.9        103591        101580        102600        102594        101929
         9.95        103625        101584        102617        102610        101946
           10        103660        101588        102636        102627        101964
        10.05        103698        101593        102656        102647        101985
         10.1        103738        101598        102678        102668        102007
        10.15        103780        101602        102701        102690        102029
         10.2        103821        101607        102724        102713        102052
        10.25        103862        101612        102747        102736        102075
         10.3        103902        101616        102771        102759        102099
        10.35        103941        101620        102793        102782        102122
         10.4        103978        101624        102815        102804        102144
        10.45        104013        101627        102836        102825        102165
         10.5        104045        101631        102855        102845        102184
        10.55        104073        101633        102872        102863        102202
         10.6        104097        101635        102888        102879        102218
        10.65        104118        101637        102901        102893        102232
         10.7        104134        101638        102913        102905        102244
        10.75        104146        101639        102921        102915        102253
         10.8        104154        101639        102928        102923        102260
        10.85        104156        101639        102932        102928        102264
         10.9        104154        101638        102933        102931        102265
        10.95        104147        101636        102931        102930        102265
           11        104136        101634        102927        102928        102261
        11.05        104121        101632        102922        102923        102255
         11.1        104102        101629        102913        102916        102247
        11.15        104079        101626        102902        102906        102236
         11.2        104052        101622        102889        102893        102223
        11.25        104022        101618        102873        102879        102208
         11.3        103990        101614        102857        102863        102192
        11.35        103956        101610        102839        102846        102175
         11.4        103920        101605        102821        102828        102156
        11.45        103883        101601        102801        102808        102137
         11.5        103844        101596        102780        102788        102117
        11.55        103805        101592        102759        102767        102096
         11.6        103767        101587        102737        102746        102075
        11.65        103730        101583        102717        102725        102053
         11.7        103693        101579        102696        102704        102032
        11.75        103658        101575        102675        102683        102011
         11.8        103624        101572        102655        102663        101991
        11.85        103592        101569        102635        102643        101971
         11.9        103563        101566        102617        102625        101953
        11.95        103538        101564        102601        102608        101936
           12        103516        101562        102587        102593        101921
        12.05        103498        101561        102574        102579        101907
         12.1        103483        101560        102562        102567        101895
        12.15        103473        101560        102554        102558        101887
         12.2        103469        101560        102548        102551        101881
        12.25        103469        101561        102546        102548        101878
         12.3        103475        101563        102546        102547        101877
        12.35        103485        101565        102549        102549        101880
         12.4        103500        101567        102555        102553        101886
        12.45        103519        101570        102564        102561        101895
         12.5        103543        101573        102576        102571        101906
        12.55        103572        101577        102590        102584        101919
         12.6        103603        101581        102606        102599        101935
        12.65        103637        101585        102624        102616        101952
         12.7        103674        101590        102643        102634        101972
        12.75        103712        101595        102664        102654        101993
         12.8        103753        101599        102686        102676        102015
        12.85        103795        101604        102710        102699        102038
         12.9        103836        101609        102733        102722        102061
        12.95        103877        101613        102756        102745        102084
           13        103917        101617        102779        102768        102107
        13.05        103955        101622        102801        102790        102130
         13.1        103991        101625        102823        102812        102152
        13.15        104025        101629        102843        102832        102172
         13.2        104056        101632        102862        102852        102191
        13.25        104083        101634        102878        102869        102208
         13.3        104105        101636        102893        102885        102223
        13.35        104124        101638        102906        102898        102237
         13.4        104139        101639        102916        102910        102247
        13.45        104150        101639        102924        102919        102256
         13.5        104155        101639        102930        102926        102262
        13.55        104156        101638        102933        102929        102265
         13.6        104152        101637        102933        102931        102265
        13.65        104144        101636        102930        102930        102264
         13.7        104131        101633        102926        102926        102259
        13.75        104115        101631        102919        102921        102253
         13.8        104094        101628        102909        102912        102243
        13.85        104070        101624        102897        102901        102231
         13.9        104041        101621        102883        102888        102218
        13.95        104011        101617        102868        102873        102203
           14        103978        101613        102851        102857        102186
        14.05        103943        101608        102833        102840        102168
         14.1        103906        101604        102813        102821        102149
        14.15        103869        101599        102793        102801        102129
         14.2        103830        101595        102772        102780        102109
        14.25        103791        101590        102751        102759        102088
         14.3        103753        101586        102730        102739        102067
        14.35        103716        101582        102709        102718        102045
         14.4        103680        101578        102688        102697        102024
        14.45        103645        101574        102667        102676        102004
         14.5        103611        101571        102647        102655        101984
        14.55        103581        101568        102628        102636        101964
         14.6        103554        101565        102611        102618        101947
        14.65        103530        101563        102596        102602        101930
         14.7        103509        101562        102582        102588        101915
        14.75        103492        101561        102569        102575        101903
         14.8        103479        101560        102559        102564        101892
        14.85        103471        101560        102552        102555        101884
         14.9        103469        101561        102547        102550        101879
        14.95        103471        101562        102546        102547        101877
           15        103478        101563        102547        102547        101878
        15.05        103490        101565        102551        102550        101882
         15.1        103506        101568        102558        102556        101889
        15.15        103528        101571        102568        102564        101899
         15.2        103553        101575        102581        102576        101911
        15.25        103583        101579        102596        102590        101925
         15.3        103615        101583        102612        102605        101941
        15.35        103650        101587        102630        102622        101959
         15.4        103688        101592        102651        102641        101979
        15.45        103727        101596        102672        102662        102001
         15.5        103768        101601        102695        102685        102023
        15.55        103810        101606        102718        102707        102046
         15.6        103851        101610        102741        102730        102069
        15.65        103892        101615        102764        102753        102092
         15.7        103931        101619        102787        102776        102115
        15.75        103969        101623        102809        102798        102138
         15.8        104004        101627        102830        102819        102159
        15.85        104037        101630        102850        102840        102179
         15.9        104066        101633        102868        102858        102197
        15.95        104091        101635        102884        102875        102214
           16        104113        101637        102898        102890        102228
        16.05        104130        101638        102910        102903        102241
         16.1        104143        101639        102919        102913        102251
        16.15        104152        101639        102926        102921        102258
         16.2        104156        101639        102931        102927        102263
        16.25        104155        101638        102933        102930        102265
         16.3        104149        101637        102932        102930        102265
        16.35        104140        101635        102929        102929        102263
         16.4        104126        101632        102923        102925        102257
        16.45        104108        101630        102916        102918        102249
         16.5        104086        101627        102905        102908        102239
        16.55        104060        101623        102892        102897        102227
         16.6        104030        101619        102878        102883        102213
        16.65        103999        101615        102862        102868        102197
         16.7        103965        101611        102845        102851        102180
        16.75        103930        101607        102826        102833        102161
         16.8        103892        101602        102806        102814        102142
        16.85        103854        101597        102785        102793        102122
         16.9        103816        101593        102764        102773        102102
        16.95        103777        101589        102743        102752        102080
           17        103740        101584        102722        102731        102059
        17.05        103703        101580        102701        102710        102038
         17.1        103667        101576        102680        102689        102017
        17.15        103632        101573        102660        102668        101996
         17.2        103600        101570        102640        102648        101977
        17.25        103571        101567        102622        102630        101958
         17.3        103545        101564        102606        102613        101941
        17.35        103522        101563        102591        102597        101925
         17.4        103503        101561        102577        102583        101911
        17.45        103487        101560        102565        102570        101899
         17.5        103476        101560        102556        102560        101889
        17.55        103470        101560        102550        102553        101882
         17.6        103469        101561        102546        102549        101878
        17.65        103473        101562        102546        102547        101877
         17.7        103482        101564        102548        102548        101879
        17.75        103495        101566        102553        102552        101884
         17.8        103514        101569        102562        102558        101892
        17.85        103537        101572        102573        102568        101902
         17.9        103564        101576        102586        102581        101915
        17.95        103594        101580        102602        102595        101930
           18        103628        101584        102619        102611        101947
        18.05        103663        101589        102637        102629        101966
         18.1        103702        101593        102658        102649        101987
        18.15        103742        101598        102680        102670        102009
         18.2        103783        101603        102703        102693        102031
        18.25        103825        101607        102726        102715        102054
         18.3        103866        101612        102750        102738        102078
        18.35        103906        101616        102773        102761        102101
         18.4        103945        101620        102795        102784        102124
        18.45        103982        101624        102817        102806        102146
         18.5        104016        101628        102837        102827        102166
        18.55        104048        101631        102857        102847        102186
         18.6        104076        101633        102874        102864        102203
        18.65        104100        101636        102889        102881        102219