# Probe 0 (-0.1 -0.0025 0.0005)
# Probe 1 (0.1 -0.0025 0.0005)
# Probe 2 (0 -0.0025 0.0005)
# Probe 3 (0 0.025 0.0005)
# Probe 4 (0 0.09 0.0005)
#       Probe             0             1             2             3             4
#        Time
            1             0             0             0   2.12095e-15             0
         1.05  -2.72228e-11  2.37152e-322    -2.662e-18     0.0048764             0
          1.1       1.28297   1.43256e-08       1027.05  4.08403e+179        1021.8
         1.15   3.01079e-07             1             1        102634      0.996904
          1.2             0             0      0.026047   7.41773e-08       33.3696
         1.25  5.13289e-310  1.97626e-323  5.13289e-310   4.85784e-33  5.13289e-310
          1.3    -0.0467379     0.0762883    -0.0828696  -3.79013e-18     0.0749756
         1.35             0             0             0   2.12095e-15             0
          1.4             0             0             0   2.12095e-15             0
         1.45  -5.62944e-09   -0.00013462    0.00057867        102338  -3.03492e-07
          1.5      -899.028     -0.221791             0       362.373             0
         1.55   -0.00565046     0.0309356     0.0324531        102269  -0.000221229
          1.6        102694        102016        102664        102016        102016
         1.65        102369        102002        102078        102668        102159
          1.7             0      0.249999      0.259599             0      0.266963
         1.75     0.0123628    0.00594422             0             0             0
          1.8       292.609           293       291.936   2.03406e-06       292.868
         1.85    0.00198314             0   1.15986e-06        102663   0.000749217
          1.9       292.777           293       291.815   2.58898e-06       293.026
         1.95    0.00200492        102080   1.14844e-06   -0.00132604  -0.000163542
            2             0             0    -0.0967883   3.22523e-86             0
         2.05    0.00205107       1027.05    1.1378e-06   -0.00403195   0.000375561
          2.1        102754        102065        102755        102382        102065
         2.15   2.85901e-11  5.13289e-310   6.69993e+08             0             0
          2.2   2.99263e-11   2.67635e-10   8.76365e-15        505444             0
         2.25      -460.457      0.159597             0       -343.21             0
          2.3    0.00048338       534.862       531.063        102406   8.72044e-05
         2.35   3.35279e-05  -5.21455e-15   4.44571e-06     0.0028813             1
          2.4    -0.0703434  -0.000763013             0    2.8275e-77             0
         2.45        102870        102209        102861        102209        102209
          2.5    -0.0126589   -0.00739084             0        102886             0
         2.55             1             1   6.94396e-08  1.38531e-259      0.994334
          2.6       618.319     -0.854292             0       291.892             0
         2.65      0.714283            -0      0.714247 -4.57011e-321      0.234943
          2.7    6.6889e-09  2.58314e+185  1.72637e+243    0.00861144             0
         2.75  5.13289e-310  1.97626e-323  5.13289e-310  1.64159e-259  5.13289e-310
          2.8   8.33375e-11  2.58314e+185  1.72637e+243      0.119036             0
         2.85     0.0111438      0.138158    -0.0779246     0.0515913  -1.08747e-07
          2.9    0.00230428      -57.1019   1.07987e-06   -0.00545417  -0.000309163
         2.95        102966        102282        102980        102282        102282
            3   5.69397e-06     0.0155588             1             0             1
         3.05       104.677       0.23399             0      -37.1056             0
          3.1        102956        102932        102929        102757   1.30407e-76
         3.15    -0.0179761    -0.0128584             0       0.12417             0
          3.2      -41.9676     -0.714561             0       403.657             0
         3.25        102212  -1.30772e-06        104250             0        102212
          3.3  -1.18403e-12  -8.43569e-12  -1.62607e-12  -2.20681e-11  -9.14643e-12
         3.35    0.00442759     0.0335878      0.133571        102663    -0.0545572
          3.4       76.8706     0.0596321             0      -140.133             0
         3.45     0.0002499     0.0553628       571.121   1.85299e-72   0.000808215
          3.5    0.00228688  -7.69172e-05   1.06489e-06   -0.00281776  -6.34653e-06
         3.55             0             0             0             0             1
          3.6     3.052e-11  -5.09542e-05   8.00695e-15             0             0
         3.65             0             0             0             0             0
          3.7       1.86448    -0.0997844             0      -73.6472             0
         3.75             0  -3.47428e-25  6.50132e-310     0.0018333            -1
          3.8   3.84169e-07  2.58314e+185  1.72637e+243    0.00343111             0
         3.85       72.4607     -0.226538             0       129.671             0
          3.9  -4.24878e-07  -3.62482e-07  -1.24579e-06        101948    0.00162844
         3.95       0.10936   0.000368689   0.000129674        102188        102373
            4        102593        101918        102593        101918        101918
         4.05   -0.00152251            -0             0   2.69204e-07   -0.00229573
          4.1        102275        101894        101949        102149        102081
         4.15    0.00194401       248.075   1.05513e-06    -0.0014501   2.93369e-05
          4.2       45.1761     0.0234458             0       10.9629             0
         4.25        102558        101885        102550        101885        101885
          4.3    0.00194903       214.715   1.05248e-06   -0.00393012    -0.0001518
         4.35  6.50132e-310    6.1769e-11  5.13289e-310   1.30788e-07  -1.05415e-06
          4.4             0    -0.0540904             0             0             0
         4.45      -136.198    -0.0878506             0       39.3875             0
          4.5        102297        101923        101984        102174        102095
         4.55        102314        101938        102000   3.13607e-06        102109
          4.6   1.59929e-07   8.25018e-09  -8.23368e-09   1.00438e-91   6.41158e-09
         4.65      0.431529    -0.0156773             0     -0.026465             0
          4.7  5.13289e-310  1.97626e-323  5.13289e-310             0  5.13289e-310
         4.75  -1.92638e-11  -7.80044e-09  -1.42247e-08            -0  -1.02559e-11
          4.8   4.93612e-05       530.922       527.173       1027.05   4.25643e-06
         4.85   7.59942e-11   8.44997e-11   1.05605e-10   4.36718e-08 -1.73911e-321
          4.9        102084        102084        102233        102261        102181
         4.95        102107        102107        102252        102284        102208
            5    1.4731e-08     1.473e-08   1.47327e-08             0             0
         5.05             0   0.000557959  -4.84187e-05     -0.361841       1.21151
          5.1   -0.00284964    -0.0162187     -0.137748             0    0.00543688
         5.15     0.0365848  -2.24251e-06             0    -0.0078619             0
          5.2        102207        102207        102356        102384        102302
         5.25        102222        102222        102360        102975        102322
          5.3  -8.10192e-24   2.91075e-12            -0   -5.8581e-26   1.00822e-26
         5.35     0.0219778     0.0448585     0.0132177     0.0914609     -0.037055
          5.4       1235.06       196.205       210.371    0.00979638             0
         5.45    0.00230805       462.426   1.03572e-06   -0.00479882  -6.09752e-05
          5.5        102943        102266        102903        102266        102266
         5.55       556.854   0.000436792       561.367             0   0.000297637
          5.6             0             0    -0.0253904  1.30401e-259     0.0746434
         5.65             0             0             0             0             1
          5.7             0             0             0             0             1
         5.75  5.13206e-310             0  5.13289e-310   1.97461e-08             0
          5.8    0.00226176   3.54389e-08   1.03636e-06   -0.00317158  -8.92478e-05
         5.85        102220        102220        102369        102399        102321
          5.9       66.0952     -0.108301             0       218.194             0
         5.95    0.00224076   6.13935e-11   1.03724e-06   -0.00167367  -0.000149694
            6       90.0716     -0.113523             0       211.287             0
         6.05      0.342751  -0.000256698             0    -0.0274009             0
          6.1       104.091    -0.0325796             0       236.624             0
         6.15        102112        102112        102262        102291        102212
          6.2             0    -0.0749749             0             0             0
         6.25       1027.05       -172.38       1027.05        102570         1.211
          6.3      0.330642  -0.000426609             0    -0.0232236             0
         6.35        102027        102027        102172        102202        102120
          6.4             0    -0.0510203             0             0             0
         6.45        102668        101986        102663        101986        101986
          6.5       54.1461    -0.0478551             0       171.045             0
         6.55    0.00210125    0.00317228    -0.0424199   -0.00192883   -0.00296599
          6.6     0.0020698            -0   1.04076e-06   -0.00159685   1.58485e-05
         6.65  7.36158e-322             0  6.50132e-310   8.75473e-12   -1.1748e-17
          6.7            -0  -9.89592e-29   6.09794e-28        102577   1.01139e-25
         6.75        101893        102391        103440            -0        102376
          6.8     0.0019461        102557   1.04058e-06   -0.00145989   2.80554e-05
         6.85     0.0260637   6.69742e-07             0   -0.00657902             0
          6.9   4.92457e-06    0.00814719   -0.00126363             0             0
         6.95        102259        101878        101936        102550        102054
            7   1.24248e-07   2.64464e-08  6.50132e-310  -3.84493e-18   0.000315187
         7.05             0             0             0   2.12095e-15             0
          7.1       32.5901  -9.89869e-07        32.725            -0     0.0126019
         7.15   8.50444e-06       531.223   7.94525e-05       1027.04   6.59143e-05
          7.2      0.408712     0.0109109             0    -0.0382071             0
         7.25        102617        101940        102610        101940        101940
          7.3    -0.0366749   -0.00583196             0      0.124925  -2.6976e-321
         7.35        102657        101978        102651        101978        101978
          7.4     0.0345943   1.41072e-06             0    -0.0110008             0
         7.45            -0            -0   5.83213e-24   6.68969e-11   2.51025e-27
          7.5   3.15553e-09   1.56662e-12    5.3986e-09   5.02297e-08   2.86983e-09
         7.55            -1             0             0             0  -7.17861e-07
          7.6             0             0       32.5754    0.00964334  -9.03726e-08
         7.65    0.00221378        102147   1.03288e-06   -0.00447271  -5.96059e-06
          7.7   0.000100988       536.061       532.286        102380   6.23068e-06
         7.75   9.33285e-28             0   -0.00122824   8.54406e-72    -0.0214564
          7.8             0             0             0             0             0
         7.85        102567        102195        102246        102442        102370
          7.9  -2.14804e-07   6.68538e-09   1.81751e-07   5.34275e-38   5.52787e-08
         7.95             0             0             0             0             1
            8    0.00230173  -8.05986e-18   1.03103e-06   -0.00391072  -9.03196e-05
         8.05        102749  -1.40255e-07        101539   3.69928e-33        102418
          8.1             0             0             0   2.12095e-15             0
         8.15        102262        102262        102408        102438        102356
          8.2  -0.000142402   1.59211e-06   -0.00538841        102929   -0.00530023
         8.25   4.33336e-07  -3.66413e-05  -9.83654e-06        102515   -0.00404851
          8.3             0             0             0             0             0
         8.35       84.4491      0.181037             0       401.645             0
          8.4            -0   2.87698e-28  -3.03606e-27   6.48287e-11  -4.62648e-25
         8.45  -2.44602e-08  2.58314e+185  1.72637e+243             0             0
          8.5             0             0             0   2.12095e-15             0
         8.55       293.039           293       293.101   1.35092e-07        293.03
          8.6   1.42117e-07  -3.18563e-08   6.85895e-10   1.24449e-47  -2.65778e-08
         8.65             0             0             0   2.12095e-15             0
          8.7  -0.000354642    -0.0656163             0        102420        102570
         8.75             1             0    0.00624103             0             1
          8.8   1.20496e-05   1.20481e-05   1.20458e-05   0.000121519   1.54424e-08
         8.85        102551  -2.03241e-07        101512   7.26788e-43        102275
          8.9       45.2481    -0.0301488             0       203.976             0
         8.95        102472   -0.00392619        101478             0        102741
            9             0             0             0             0             0
         9.05            -0   1.85271e-72            -0  -1.63859e-06   -0.00379764
          9.1        101997        101997        102145        102175        102094
         9.15       32.9787     -0.142405             0       201.047             0
          9.2       44.6558      0.032329             0   1.87053e-06             0
         9.25             0             0             0             0             1
          9.3  6.00786e+247  5.99918e-310  6.00786e+247  -5.49082e-12             0
         9.35             0             0     0.0338467        102450        -22316
          9.4        101899        101899        102046        102076        101996
         9.45   4.39539e-06   9.79138e-06    1.0049e-05        102146   1.53785e-05
          9.5        102265        101882        101938        102554        102059
         9.55             0             0             0             0             1
          9.6    0.00194529             0   1.03878e-06   -0.00195586   4.81519e-05
         9.65             0             0             0   2.12095e-15             0
          9.7             0        102561  3.45846e-323        102138            -0
         9.75   4.19632e+21   6.52928e-11   6.62519e-11       0.10843  3.95253e-322
          9.8        101901        101901        102047        102077        101997
         9.85      -5.38958      0.161441             0       96.4771             0
          9.9             0             0             0       1027.05             0
         9.95   9.89216e-08    0.00240787   -0.00013649   7.11518e-38   -7.4099e-07
           10  -4.12617e-05  -3.19331e-05  -1.41122e-09  -3.27225e-08   2.44014e-08
        10.05        102664        101985        102653        101985        101985
         10.1   1.68395e-07  -1.89952e-08   2.43495e-09   1.85358e-72  -1.26119e-08
        10.15  -7.30597e-24       -9.3707            -0  -5.45306e-26   4.16385e-27
         10.2  -2.84923e-11             0  -5.47036e-08   2.20891e-07             0
        10.25  1.01104e-314   1.70445e-09  4.94066e-324       1027.04    5.2046e-90
         10.3             0      -21589.4      -21633.3    0.00952216             0
        10.35       47.1516     -0.208702             0       400.197             0
         10.4        102143        102143        102288        102318        102238
        10.45    0.00224899   2.65942e-10   1.03135e-06   3.85141e-10  -5.59563e-05
         10.5        102555        102183        102234            -0        102357
        10.55       76.7405     -0.508605             0       403.167             0
         10.6  -2.14029e-08  -5.91797e-12  -2.22949e-12  -2.42644e-10  -9.71792e-09
        10.65       96.0206     -0.494458             0       440.435             0
         10.7             0             0             0   2.12095e-15             0
        10.75  -1.62949e-07  -5.18159e-05   1.99549e-05   6.56116e-11   4.01368e-07
         10.8            -1    -0.0105965            -1             0             0
        10.85   1.06856e-08   4.92398e-08   0.000225779        102264   1.42703e-07
         10.9       76.4052    -0.0462418             0       361.314             0
        10.95       33.4219        102554       33.5568    1.8978e-52    0.00700012
           11   -5.5893e-09             0  6.50132e-310    1.8978e-52  -2.00304e-08
        11.05             0      0.249999      0.259599             0      0.266963
         11.1  -0.000138564        102254  -0.000214253   5.20844e-90  -8.74901e-08
        11.15             0            -0    2.8657e-26             0  -4.54011e-28
         11.2  5.13289e-310  1.97626e-323  5.13289e-310        102903  5.13289e-310
        11.25    0.00225085            -0   1.03338e-06   -0.00209691  -3.51322e-05
         11.3  -2.86045e-07  -6.91089e-08  -3.66177e-08        102701  -0.000121917
        11.35    0.00223985            -1   1.03433e-06   -0.00168377  -2.30992e-05
         11.4             0      0.249999      0.259599             0      0.266963
        11.45       52.4979     -0.180951             0       225.999             0
         11.5        102116        102116        102263        102293        102213
        11.55        102776        102096        102760        102096        102096
         11.6  -4.06874e-06  -0.000389163  6.50132e-310    1.2782e-09             0
        11.65     0.0174205    0.00682576    -0.0377691   1.46856e-43    -0.0402148
         11.7        102415        102031        102089        102289        102206
        11.75     0.0111085     0.0152917    -0.0416908  3.27614e+179    -0.0403652
         11.8  -7.16377e-06   -0.00120655             0            -0             0
        11.85      -0.19846      -50.8031             0             0             0
         11.9        102067        102114        101993        102350        101954
        11.95      0.321161     0.0343735             0    -0.0595629             0
           12        102599        101921        102591        101921        101921
        12.05   2.73744e-11   2.59241e-29   7.94438e-15   1.32976e-05             0
         12.1       16.5554     0.0150384             0       149.291             0
        12.15     0.0254481    3.4951e-06             0    -0.0135252             0
         12.2  -0.000105655        101885  -0.000162532   1.03052e-71  -5.22692e-08
        12.25             0             0             0             0             1
         12.3            -0   1.18322e-28  -1.52085e-27   6.64335e-11   3.57596e-26
        12.35        101879        101879        102026        102056        101976
         12.4        101885        101885        102032        102062        101982
        12.45    0.00139444    0.00112405    0.00102372        102147    0.00397211
         12.5        102420      0.182193        101471   2.11062e-52        102584
        12.55    0.00201655       44.1673   1.03674e-06   -0.00271941  -9.38828e-06
         12.6   1.53265e-09   1.09765e-06  6.50132e-310             0   3.42816e-09
        12.65      -63.0513    -0.0932999             0       137.543             0
         12.7        102650        101972        102643        101972        101972
        12.75        101993        102093        102557       1027.05        101993
         12.8  -7.22719e-24   2.23104e-07            -0       1027.05   3.45368e-86
        12.85        102197        102037        102225 -1.72923e-322       1026.94
         12.9       14.4145     -0.122499             0       316.464             0
        12.95            -0   1.10016e-13       -4.2286   2.90809e-33    0.00481616
           13   3.00934e-29            -0   7.35528e-27            -0            -0
        13.05             0   -1.5654e-30  -6.59494e-28  -5.60697e-12   2.09095e-27
         13.1    0.00576235     0.0180909     -0.026209   4.66074e-33     -0.035416
        13.15   -0.00707771     -0.071232             0   6.26596e-05 -2.09484e-321
         13.2   -0.00621301             0   0.000567632             0             0
        13.25       67.6033     -0.584512             0       407.102             0
         13.3             0      0.249999      0.259599             0      0.266963
        13.35    0.00229868      -27.8012   1.03051e-06   -0.00387489  -7.75151e-05
         13.4       1026.98       628.665       1027.02             0        102768
        13.45        102255        102255        102400        102430        102348
         13.5   8.92224e-06    0.00815463    0.00241216             0   4.33445e-06
        13.55   -1.3454e-13  -1.75475e-13    4.2802e-15             0   -3.1053e-13
         13.6       557.082             0       561.596   8.54406e-72   5.26701e-05
        13.65        102263        102263        102409        102440        102360
         13.7             0  2.58314e+185  1.72637e+243    0.00784769  -5.00131e-45
        13.75        102930        102253        102900        102253        102253
         13.8    0.00228055  -9.53058e-12   1.03222e-06   -0.00280475  -8.41563e-05
        13.85     0.0107878  -1.46797e-05             0        102900             0
         13.9        102217        102217        102364        102394        102314
        13.95  -2.05161e-08   -6.3969e-07  -1.38757e-07    3.7379e-18  -2.64232e-08
           14       49.4095       0.29308             0       217.048             0
        14.05        102167        102167        102313        102343        102262
         14.1        102148        102148        102295        102325        102244
        14.15    0.00225158        880.77   1.03545e-06   -0.00201118   -3.9164e-05
         14.2  5.13289e-310  1.97626e-323  5.13289e-310   5.02297e-08  5.13289e-310
        14.25     3.023e-11   2.57938e-10   7.79386e-15        505444             0
         14.3             0             0             0             0             1
        14.35    0.00289231       33.7524       33.6325        102302    0.00691861
         14.4             0    -0.0588037             0             0             0
        14.45       292.934           293       292.906   1.70344e-07       292.941
         14.5       28.6642       0.19372             0       164.165             0
        14.55  -2.66155e-11   3.81537e-09   5.96785e-10   3.04208e-08  -3.19961e-07
         14.6    0.00209953            -0   1.03876e-06   -0.00139851  -2.65434e-05
        14.65    0.00206641      -7.27923   1.03689e-06   -0.00159241  -2.54848e-05
         14.7             0    -0.0560038             0             0             0
        14.75        101902        101902        102049        102079        101998
         14.8      0.107965      0.104383             0        170.58             0
        14.85             0             0    -0.0348525             0     -0.102873
         14.9      -16.7438      0.129139             0       141.136             0
        14.95    0.00194463   8.75102e-08    1.0387e-06   7.60971e-05   6.53711e-06
           15        102557        101878        102552        101878        101878
        15.05   2.71568e-11            -0   8.04551e-15        505444             0
         15.1   4.19632e+21      0.999987             1    0.00564753  -2.33672e-11
        15.15       0.38785     0.0206728             0    -0.0544229             0
         15.2   -0.00151649   -0.00687039      0.165397   1.12131e-08    -0.0962312
        15.25    0.00202191   1.76247e-11    1.0365e-06   -0.00299208   4.48748e-06
         15.3             0             0             0             0             0
        15.35   2.88603e-11   2.67729e-10   8.08467e-15        505444             0
         15.4        102658        101979        102649        101979        101979
        15.45    0.00211012   3.95614e-10   1.03443e-06   -0.00396756   1.70649e-05
         15.5   4.19632e+21             0            -0   4.39038e-10 -2.33693e-321
        15.55        102045        102045        102190        102220        102139
         15.6             0             0             0             0             1
        15.65        102771        102092        102744        102092        102092
         15.7       36.0781     -0.192738             0         403.4             0
        15.75      0.467246     0.0384077             0    -0.0629477             0
         15.8             0    2.1282e-28  -1.43479e-27   -5.5948e-12  -7.91245e-26
        15.85             0             0             0             0             0
         15.9    0.00226771   2.65014e-10   1.03104e-06   -0.00407653  -5.91433e-05
        15.95             0    -0.0766461             0             0             0
           16   9.60783e-08  -0.000179423   0.000137961        102888   1.24914e-07
        16.05       82.7918     -0.325406             0       499.066             0
         16.1      0.445541     0.0535659             0    -0.0702462             0
        16.15             0             0             1    3.5728e-62             0
         16.2             0             0             0             0             0
        16.25    3.1348e-11   2.45178e-17   7.84174e-15        505444             0
         16.3   3.12667e-11    4.4667e-08   7.82772e-15        505444             0
        16.35  5.13206e-310             0  6.50132e-310             0             0
         16.4   -0.00210283     0.0165749      0.153857   1.08924e-08     -0.105063
        16.45        101371   6.77181e-43  1.38531e-259        102774        102249
         16.5             0      0.249999      0.259599             0      0.266963
        16.55    -0.0115653    0.00363044    -0.0282991    0.00210063  -0.000435684
         16.6            -0   1.95418e-29   7.95149e-28   6.45826e-11   3.41424e-26
        16.65       44.9708      0.430086             0       266.437             0
         16.7     0.0279606   6.47127e-06             0    -0.0176349             0
        16.75             0             0             0             0             0
         16.8        102141        102141        102288        102318        102238
        16.85       28.1772    0.00901141             0       222.991             0
         16.9   6.01232e-09  -1.29637e-07  -6.16458e-09             0   2.71018e-08
        16.95        102760        102081        102747        102081        102081
           17        102738        102059        102726        102059        102059
        17.05   1.21013e-05   1.19085e-08   1.34108e-08   6.08929e-07    7.5589e-06
         17.1        102696        102017        102687        102017        102017
        17.15   3.00564e-29            -0   9.08697e-27            -0            -0
         17.2  -7.84263e-12   1.52266e-13  -1.56623e-13       1027.01   -1.1673e-17
        17.25   2.88278e-11   2.60268e-10   7.88343e-15  -2.02897e-11  -3.64553e-13
         17.3  -1.19722e-17        101941  -3.83836e-19   2.70311e-13   1.24628e-17
        17.35       361.396       830.369        109.47  -5.49277e-12        102374
         17.4        102294        101910        101967   5.59943e-67        102086
        17.45             0             0     0.0148353     0.0225519     0.0553059
         17.5    0.00195866             0   1.03906e-06   -0.00147284   3.06027e-05
        17.55      0.327362     0.0261721             0    -0.0599109             0
         17.6  -9.37234e-11    6.5468e-11  -7.57148e-12  -2.07301e-11  -1.04716e-11
        17.65      -1.91353     0.0720085             0       128.161             0
         17.7        101878        101878        102025        102055        101975
        17.75  -2.37135e-07  -3.34144e-08  -7.51315e-08     0.0777265  -5.54133e-08
         17.8  -2.80191e-11  -2.68537e-18   5.96778e-10   2.40394e-08  -3.76882e-07
        17.85   -0.00125788    0.00662309     -0.055628  -7.24782e-13   -0.00959527
         17.9        102292        101914        101971   6.68079e-11        102089
        17.95   -0.00176081   -0.00747591      0.172797            -0    -0.0987952
           18        102322        101946        102001      -161.134        102122
        18.05  -8.55254e-06   -0.00387289             0     0.0152313             0
         18.1   2.93234e-11   2.67888e-10   8.08285e-15        505444             0
        18.15     0.0123404   -0.00439221     0.0324685            -0     0.0265416
         18.2       9.48448     0.0275926             0       236.885             0
        18.25        102732        102054        102706        102054        102054
         18.3    0.00218293      -7.46975   1.03281e-06    0.00939413  -1.12778e-05
        18.35             0             0   4.10452e-06             0     0.0169168
         18.4             0    -0.0754492             0             0             0
        18.45    0.00223494      -6.28425   1.03158e-06   -0.00439413  -4.16569e-05
         18.5       0.46664     0.0439439             0    -0.0620748             0
        18.55  -3.90324e-28            -0    -9.201e-28  -3.84177e-18   6.50246e-27
         18.6        102575        102202        102251        102448        102378
        18.65       546.181    -2.949e-07  -0.000135501        102798   1.29013e-06