# Probe 0 (-0.1 -0.0025 0.0005)
# Probe 1 (0.1 -0.0025 0.0005)
# Probe 2 (0 -0.0025 0.0005)
# Probe 3 (0 0.025 0.0005)
# Probe 4 (0 0.09 0.0005)
#       Probe             0             1             2             3             4
#        Time
            1             (33.626 -0.000351254 0)             (33.6995 -0.000466394 0)             (33.6504 -0.00213169 2.01665e-42)             (0.0364251 -0.0723641 3.09442e-27)             (0.076679 0.0433486 3.35673e-27)
         1.05             (33.5738 -0.000330301 0)             (33.6449 -0.000438816 0)             (33.598 -0.00183762 1.82063e-42)             (0.0168126 -0.0812153 1.92482e-26)             (0.0841834 -0.0185614 -2.50244e-26)
          1.1             (33.5161 -0.000310255 0)             (33.5845 -0.000409611 0)             (33.5401 -0.0015309 1.58848e-42)             (0.016434 -0.114288 8.43367e-27)             (0.0150825 -0.023293 -2.8913e-26)
         1.15             (33.4524 -0.000291075 0)             (33.5192 -0.000388176 0)             (33.4761 -0.0013219 1.42953e-42)             (0.0120132 -0.12366 1.19745e-26)             (-0.0861667 -0.0105194 -9.29177e-27)
          1.2             (33.385 -0.000272724 0)             (33.4497 -0.000363842 0)             (33.4084 -0.00104185 1.20689e-42)             (0.000277977 -0.152927 -6.38217e-26)             (-0.0723849 -0.0145166 3.64197e-26)
         1.25             (33.3139 -0.000255167 0)             (33.3771 -0.000335467 0)             (33.3371 -0.000876734 1.0874e-42)             (-0.0825611 -0.148946 -1.03976e-25)             (0.0292425 -0.0149614 3.71179e-26)
          1.3             (33.2397 -0.000238369 0)             (33.3023 -0.000320466 0)             (33.2629 -0.000781305 1.01814e-42)             (-0.10415 -0.113566 -7.89152e-27)             (0.0894082 -0.000772535 2.61124e-27)
         1.35             (33.165 -0.000222298 0)             (33.2262 -0.000299 0)             (33.188 -0.000602453 8.98136e-43)             (-0.0787455 -0.095259 2.34385e-26)             (0.0396103 -0.011442 -3.30025e-26)
          1.4             (33.0898 -0.00020692 0)             (33.1501 -0.000278322 0)             (33.1127 -0.000488059 8.19083e-43)             (-0.0458629 -0.0856714 2.81597e-26)             (-0.0385458 0.00666585 -2.37506e-26)
         1.45             (33.0151 -0.000192207 0)             (33.0748 -0.000263116 0)             (33.038 -0.000396901 7.66062e-43)             (-0.0278402 -0.0652712 1.13084e-26)             (-0.0635766 -0.0158455 -1.48396e-28)
          1.5             (32.943 -0.000178132 0)             (33.0015 -0.000243924 0)             (32.9658 -0.000255209 6.67276e-43)             (-0.0205575 -0.0403965 -8.92618e-27)             (-0.0104865 -0.0181285 2.93279e-26)
         1.55             (32.873 -0.000164664 0)             (32.9313 -0.000231243 0)             (32.8957 -0.000236961 6.49703e-43)             (-0.00812755 -0.0175158 5.42147e-27)             (0.0524844 -0.00718926 1.3957e-26)
          1.6             (32.8068 -0.000151779 0)             (32.8648 -0.000216663 0)             (32.8294 -0.000215488 6.41361e-43)             (-0.0110944 -0.0108625 9.40159e-27)             (0.0461048 -0.00410522 -1.81685e-26)
         1.65             (32.7461 -0.00013945 0)             (32.8033 -0.000199901 0)             (32.7687 -0.000109911 5.73327e-43)             (0.00259488 -0.0200252 1.16656e-26)             (-0.0236764 0.00923766 -2.8475e-26)
          1.7             (32.6907 -0.000127655 0)             (32.7476 -0.000190705 0)             (32.7132 -5.87833e-05 5.41726e-43)             (0.0117373 -0.0405253 1.47433e-26)             (-0.0761897 0.0111314 -6.98812e-27)
         1.75             (32.642 -0.000116371 0)             (32.6984 -0.000181746 0)             (32.6645 1.29834e-05 4.87455e-43)             (0.0149404 -0.0466749 5.89262e-27)             (-0.0411426 -0.0189072 2.89627e-26)
          1.8             (32.6007 -0.000105575 0)             (32.6565 -0.000174873 0)             (32.623 7.87461e-05 4.4071e-43)             (0.019383 -0.0483806 8.28366e-28)             (0.0276119 -0.0172115 2.46518e-26)
         1.85             (32.5669 -9.52454e-05 0)             (32.6224 -0.000168802 0)             (32.5892 0.00011497 4.20356e-43)             (0.0163304 -0.0492926 -2.07805e-27)             (0.0800484 -0.00519021 4.30726e-27)
          1.9             (32.5417 -8.53633e-05 0)             (32.5967 -0.000163871 0)             (32.564 0.000184494 3.70716e-43)             (0.0120919 -0.0582268 -3.69818e-27)             (0.0529938 -0.0110965 -2.73639e-26)
         1.95             (32.5251 -7.59087e-05 0)             (32.5798 -0.000165068 0)             (32.5473 0.000215381 3.50964e-43)             (0.0118843 -0.0653815 8.95023e-28)             (-0.00954819 0.00132853 -1.69627e-26)
            2             (32.5171 -6.68642e-05 0)             (32.5717 -0.000158886 0)             (32.5392 0.000222694 3.51842e-43)             (0.0104211 -0.0659167 -1.06907e-27)             (-0.0337547 -0.0136018 3.26273e-27)
         2.05             (32.5188 -5.82109e-05 0)             (32.5728 -0.000163454 0)             (32.5408 0.000303066 2.84164e-43)             (0.0119574 -0.0599836 -2.60333e-27)             (0.00172568 -0.0191092 2.06053e-26)
          2.1             (32.5292 -4.99329e-05 0)             (32.583 -0.000164948 0)             (32.5512 0.000339323 2.60397e-43)             (0.00439659 -0.0596446 -2.64762e-27)             (0.0527524 -0.0100517 1.45917e-26)
         2.15             (32.5483 -4.20138e-05 0)             (32.6022 -0.000157744 0)             (32.5703 0.000337742 2.75317e-43)             (-0.00540923 -0.0874642 6.07933e-27)             (0.0742462 -0.022785 -8.07983e-27)
          2.2             (32.5763 -3.44378e-05 0)             (32.6299 -0.000157971 0)             (32.5983 0.000370661 2.54792e-43)             (5.91745e-05 -0.108585 7.5625e-27)             (0.0336241 -0.0228086 -2.57255e-26)
         2.25             (32.6119 -2.71892e-05 0)             (32.666 -0.000147986 0)             (32.6339 0.000323856 3.14332e-43)             (0.0134028 -0.0906116 4.55955e-27)             (-0.0183702 -0.0162929 -1.4132e-26)
          2.3             (32.6557 -2.02541e-05 0)             (32.7097 -0.000138254 0)             (32.6777 0.000328468 3.1564e-43)             (0.0123953 -0.071064 -5.72394e-28)             (-0.021819 -0.019764 1.02458e-26)
         2.35             (32.7069 -1.36192e-05 0)             (32.7606 -0.000140543 0)             (32.7288 0.000373572 2.78064e-43)             (0.00630438 -0.0647389 -3.30211e-27)             (0.0247352 -0.0187684 1.84826e-26)
          2.4             (32.7642 -7.27167e-06 0)             (32.8179 -0.00013954 0)             (32.7861 0.000390914 2.67895e-43)             (0.00263377 -0.0727245 -1.31052e-27)             (0.0669472 -0.0144601 9.59107e-27)
         2.45             (32.8268 -1.1989e-06 0)             (32.8807 -0.000132763 0)             (32.8488 0.000377824 2.83993e-43)             (0.00415445 -0.0758347 1.87898e-27)             (0.0677397 -0.0158987 -1.17254e-26)
          2.5             (32.8941 4.61143e-06 0)             (32.9482 -0.000125846 0)             (32.9161 0.000363231 2.95155e-43)             (0.00204975 -0.0751272 2.33822e-28)             (0.0197183 -0.00964519 -2.19856e-26)
         2.55             (32.9648 1.01706e-05 0)             (33.0194 -0.000103496 0)             (32.9869 0.000285395 3.80218e-43)             (-0.000593303 -0.0844475 9.49908e-28)             (-0.0201911 -0.0135542 -6.19344e-27)
          2.6             (33.0388 1.54892e-05 0)             (33.0933 -9.05919e-05 0)             (33.0609 0.00028961 3.72794e-43)             (0.0017257 -0.0861764 -3.34651e-27)             (-0.00734698 -0.0207668 1.22594e-26)
         2.65             (33.1146 2.0578e-05 0)             (33.1689 -9.83502e-05 0)             (33.1366 0.000305425 3.69791e-43)             (0.0026648 -0.0871069 -4.13461e-28)             (0.0331187 -0.0155848 1.30558e-26)
          2.7             (33.1907 2.54468e-05 0)             (33.2452 -9.24222e-05 0)             (33.2127 0.000281266 3.96891e-43)             (-0.000281824 -0.0868009 -2.32259e-27)             (0.0605922 -0.0104269 3.06511e-27)
         2.75             (33.2664 3.01053e-05 0)             (33.3211 -8.33125e-05 0)             (33.2884 0.000260402 4.15616e-43)             (-0.000320402 -0.0892854 3.43368e-27)             (0.048983 -0.0132753 -1.70569e-26)
          2.8             (33.3405 3.45629e-05 0)             (33.3956 -7.46784e-05 0)             (33.3626 0.000222711 4.47731e-43)             (0.00192314 -0.0953809 4.67128e-27)             (0.00165308 -0.0106678 -1.9535e-26)
         2.85             (33.412 3.88281e-05 0)             (33.4676 -5.96986e-05 0)             (33.4342 0.000163435 4.99897e-43)             (0.00583491 -0.0950995 2.0655e-27)             (-0.0289166 -0.0119617 -2.55698e-27)
          2.9             (33.4807 4.29092e-05 0)             (33.5361 -5.47028e-05 0)             (33.5028 0.000168958 4.95051e-43)             (0.00637247 -0.0902718 -1.26445e-27)             (-0.0128701 -0.0175342 1.25817e-26)
         2.95             (33.5449 4.68144e-05 0)             (33.6004 -5.10248e-05 0)             (33.5671 0.000165914 4.94907e-43)             (0.00348711 -0.0861565 -2.91651e-27)             (0.0226289 -0.0162591 1.1185e-26)
            3             (33.6038 5.05512e-05 0)             (33.6595 -4.11988e-05 0)             (33.626 0.000141453 5.10307e-43)             (0.00105097 -0.0817535 4.30371e-28)             (0.04153 -0.0224287 -7.58136e-28)
         3.05             (33.6568 5.41272e-05 0)             (33.7126 -3.3259e-05 0)             (33.679 0.000118437 5.23092e-43)             (0.0040052 -0.0777345 3.26824e-27)             (0.0286562 -0.0286994 -1.14783e-26)
          3.1             (33.7029 5.75492e-05 0)             (33.7591 -2.43285e-05 0)             (33.7252 7.41948e-05 5.51657e-43)             (0.00575883 -0.074648 -3.69848e-28)             (-0.00782175 -0.0234422 -1.40597e-26)
         3.15             (33.7418 6.08239e-05 0)             (33.7982 -1.80209e-05 0)             (33.7641 4.26371e-05 5.70589e-43)             (0.00562243 -0.0782464 -6.55258e-28)             (-0.0272647 -0.0226032 2.24576e-27)
          3.2             (33.7733 6.39577e-05 0)             (33.8296 -1.43747e-05 0)             (33.7956 4.99931e-05 5.57798e-43)             (0.00693847 -0.0803716 1.62881e-27)             (-0.00815174 -0.0232406 1.21925e-26)
         3.25             (33.7964 6.69568e-05 0)             (33.8529 -1.11047e-05 0)             (33.8188 3.85e-05 5.60716e-43)             (0.00547351 -0.078531 1.1763e-27)             (0.0228876 -0.0212113 8.99249e-27)
          3.3             (33.811 6.98271e-05 0)             (33.8676 -7.5745e-06 0)             (33.8334 2.34207e-05 5.67609e-43)             (0.00398608 -0.0777204 -5.94259e-28)             (0.0368684 -0.0240194 -3.52887e-27)
         3.35             (33.8169 7.2574e-05 0)             (33.8736 -4.08447e-06 0)             (33.8394 5.33401e-06 5.81273e-43)             (0.00494133 -0.073627 -1.21999e-27)             (0.0208907 -0.0245315 -1.1397e-26)
          3.4             (33.814 7.52028e-05 0)             (33.8709 -2.49772e-06 0)             (33.8364 -2.89958e-05 5.99347e-43)             (0.00618111 -0.0710681 9.45424e-28)             (-0.00937654 -0.0208685 -9.40522e-27)
         3.45             (33.8024 7.77189e-05 0)             (33.8595 -1.16978e-07 0)             (33.8249 -3.57135e-05 5.93595e-43)             (0.00635165 -0.073594 -6.25179e-28)             (-0.0185718 -0.0211178 2.77567e-27)
          3.5             (33.7826 8.01268e-05 0)             (33.8394 2.80019e-06 0)             (33.805 -2.38661e-05 5.75538e-43)             (0.00552573 -0.0756572 -9.17908e-28)             (0.000582273 -0.0215261 9.36488e-27)
         3.55             (33.7543 8.24313e-05 0)             (33.8111 4.83729e-06 0)             (33.7768 -2.77361e-05 5.69591e-43)             (0.00293499 -0.0769501 -7.53272e-28)             (0.0268067 -0.0197227 5.73288e-27)
          3.6             (33.718 8.4637e-05 0)             (33.7749 7.01878e-06 0)             (33.7405 -3.37867e-05 5.65671e-43)             (0.00263938 -0.0808673 2.36343e-27)             (0.0322228 -0.0217352 -4.61278e-27)
         3.65             (33.6742 8.67479e-05 0)             (33.7312 9.50175e-06 0)             (33.6967 -3.9761e-05 5.63435e-43)             (0.00617381 -0.0816758 2.97732e-27)             (0.0139994 -0.0204941 -1.04183e-26)
          3.7             (33.6236 8.87681e-05 0)             (33.6805 1.15856e-05 0)             (33.6461 -5.02948e-05 5.65053e-43)             (0.00648457 -0.077286 -2.80168e-27)             (-0.0107074 -0.0182197 -6.59651e-27)
         3.75             (33.5668 9.07014e-05 0)             (33.6237 1.38483e-05 0)             (33.5893 -3.42937e-05 5.4701e-43)             (0.00544675 -0.0754117 -1.61219e-27)             (-0.0123585 -0.0192513 3.76641e-27)
          3.8             (33.5047 9.25514e-05 0)             (33.5613 1.62105e-05 0)             (33.5272 -9.55838e-06 5.22909e-43)             (0.00462122 -0.074727 -1.91636e-27)             (0.00734158 -0.0184026 8.54406e-27)
         3.85             (33.4379 9.43218e-05 0)             (33.4943 1.81925e-05 0)             (33.4603 5.20422e-06 5.06782e-43)             (0.00413817 -0.0750344 -1.4591e-27)             (0.0282642 -0.0170027 3.26515e-27)
          3.9             (33.3672 9.60162e-05 0)             (33.4236 2.00766e-05 0)             (33.3897 1.9602e-05 4.90124e-43)             (0.00629597 -0.074345 -5.90145e-28)             (0.0275431 -0.0184254 -5.83024e-27)
         3.95             (33.2938 9.76376e-05 0)             (33.35 2.19342e-05 0)             (33.3162 3.02956e-05 4.78213e-43)             (0.00733258 -0.0704154 -2.39561e-27)             (0.00903588 -0.0170589 -8.99893e-27)
            4             (33.2185 9.9189e-05 0)             (33.2746 2.36531e-05 0)             (33.241 4.37223e-05 4.65428e-43)             (0.00844554 -0.0668893 -7.72977e-28)             (-0.0104033 -0.0152256 -2.3337e-27)
         4.05             (33.1426 0.000100673 0)             (33.1984 2.57679e-05 0)             (33.165 8.15513e-05 4.34161e-43)             (0.00934032 -0.0621031 -9.84922e-29)             (-0.00652116 -0.0164259 5.00279e-27)
          4.1             (33.067 0.000102094 0)             (33.1224 2.44144e-05 0)             (33.0894 0.000119583 4.03625e-43)             (0.00889161 -0.0615006 6.3592e-28)             (0.0132115 -0.0151216 7.79494e-27)
         4.15             (32.9926 0.000103452 0)             (33.0478 2.19072e-05 0)             (33.0149 0.000151448 3.78103e-43)             (0.00946962 -0.0617473 1.35519e-27)             (0.0286104 -0.0145956 9.34865e-28)
          4.2             (32.9205 0.000104752 0)             (32.9754 1.83855e-05 0)             (32.9428 0.000177942 3.55337e-43)             (0.00946702 -0.0614939 1.95028e-27)             (0.0234795 -0.0154569 -6.20576e-27)
         4.25             (32.8516 0.000105996 0)             (32.9064 1.49627e-05 0)             (32.8739 0.000199402 3.38492e-43)             (0.00935025 -0.0615238 3.80292e-27)             (0.0060693 -0.014184 -7.67526e-27)
          4.3             (32.7871 0.000107185 0)             (32.8417 1.23181e-05 0)             (32.8094 0.000227769 3.17727e-43)             (0.00737637 -0.0603396 4.24074e-27)             (-0.00668612 -0.0132756 5.13095e-28)
         4.35             (32.7279 0.000108323 0)             (32.7822 6.3148e-06 0)             (32.7501 0.000270425 2.85268e-43)             (0.00127339 -0.057122 6.12854e-28)             (0.000863489 -0.0141299 5.64683e-27)
          4.4             (32.6748 0.000109411 0)             (32.7288 -6.54925e-07 0)             (32.6969 0.000307401 2.57169e-43)             (-0.00034924 -0.0619399 2.58748e-28)             (0.0196012 -0.0127642 5.778e-27)
         4.45             (32.6283 0.000110451 0)             (32.6822 -4.96662e-06 0)             (32.6505 0.000331043 2.42164e-43)             (0.000114138 -0.068923 2.55849e-27)             (0.0296955 -0.0127768 -8.36878e-28)
          4.5             (32.5894 0.000111446 0)             (32.6431 -8.09158e-06 0)             (32.6114 0.000350238 2.32941e-43)             (-0.000599249 -0.0733453 2.46025e-27)             (0.0219175 -0.0127744 -6.11138e-27)
         4.55             (32.5584 0.000112398 0)             (32.612 -1.00772e-05 0)             (32.5804 0.000362614 2.30957e-43)             (-0.00118161 -0.0753167 -2.47188e-28)             (0.00642628 -0.0115013 -6.43909e-27)
          4.6             (32.536 0.000113307 0)             (32.5895 -1.27762e-05 0)             (32.558 0.00038469 2.21136e-43)             (-0.00196957 -0.0787779 -1.40374e-27)             (-0.00147837 -0.011078 1.01067e-27)
         4.65             (32.5225 0.000114177 0)             (32.5757 -1.86983e-05 0)             (32.5445 0.000417452 2.00659e-43)             (-0.00116282 -0.0849739 -1.51181e-30)             (0.00714874 -0.0117526 4.60829e-27)
          4.7             (32.5179 0.000115008 0)             (32.5711 -2.32446e-05 0)             (32.5399 0.000438069 1.90902e-43)             (-0.000619059 -0.0905843 -3.49047e-28)             (0.0228964 -0.0109068 4.50135e-27)
         4.75             (32.5224 0.000115803 0)             (32.5755 -2.48992e-05 0)             (32.5443 0.000446002 1.93486e-43)             (-0.000784554 -0.0938234 -1.6731e-27)             (0.0314193 -0.0102351 -7.68504e-28)
          4.8             (32.5359 0.000116563 0)             (32.589 -2.50411e-05 0)             (32.5578 0.000446926 2.02148e-43)             (0.000649148 -0.0950747 2.02549e-27)             (0.0250402 -0.00837427 -4.49436e-27)
         4.85             (32.5582 0.000117289 0)             (32.6113 -2.47651e-05 0)             (32.5801 0.000447427 2.11047e-43)             (0.00192655 -0.0974469 1.81947e-27)             (0.0137655 -0.00702587 -5.55074e-27)
          4.9             (32.589 0.000117983 0)             (32.6422 -2.58476e-05 0)             (32.6109 0.000455457 2.10847e-43)             (0.000788697 -0.0993743 1.56251e-28)             (0.00576289 -0.00736325 7.13435e-28)
         4.95             (32.628 0.000118646 0)             (32.6811 -2.68059e-05 0)             (32.6499 0.000462468 2.11388e-43)             (0.000461931 -0.104719 8.4901e-28)             (0.0130895 -0.00761157 4.40633e-27)
            5             (32.6744 0.000119281 0)             (32.7276 -2.68678e-05 0)             (32.6963 0.000462866 2.16782e-43)             (0.00376339 -0.107035 1.81554e-27)             (0.0254234 -0.00564619 3.8566e-27)
         5.05             (32.7277 0.000119887 0)             (32.7809 -2.53238e-05 0)             (32.7495 0.000453289 2.30827e-43)             (0.00531915 -0.106397 1.72143e-27)             (0.0347834 -0.00210301 1.32008e-27)
          5.1             (32.7869 0.000120467 0)             (32.8403 -2.2596e-05 0)             (32.8088 0.000436753 2.51017e-43)             (0.00453588 -0.105999 2.36519e-27)             (0.0319629 0.00116414 -2.65872e-27)
         5.15             (32.8514 0.000121021 0)             (32.9049 -1.9836e-05 0)             (32.8733 0.000423518 2.67534e-43)             (0.0026794 -0.105979 -8.73275e-28)             (0.021769 0.00181411 -3.81478e-27)
          5.2             (32.9203 0.000121551 0)             (32.9739 -1.80673e-05 0)             (32.9422 0.000412771 2.80948e-43)             (0.00306976 -0.108745 -1.63931e-27)             (0.0165639 -0.00327412 -2.21145e-28)
         5.25             (32.9925 0.000122058 0)             (33.0462 -1.64448e-05 0)             (33.0144 0.000401836 2.93662e-43)             (0.00382824 -0.10959 -1.39149e-27)             (0.0200968 -0.00643414 3.29776e-27)
          5.3             (33.0671 0.000122543 0)             (33.1209 -1.3746e-05 0)             (33.089 0.000385341 3.10201e-43)             (0.00474119 -0.107947 -1.22161e-27)             (0.0287213 -0.00352629 2.70552e-27)
         5.35             (33.1429 0.000123007 0)             (33.1969 -9.87728e-06 0)             (33.1648 0.000361841 3.3219e-43)             (0.00549775 -0.105833 1.50919e-28)             (0.0351437 0.00509842 2.98351e-27)
          5.4             (33.2189 0.000123451 0)             (33.2731 -4.80019e-06 0)             (33.2409 0.000334147 3.57103e-43)             (0.00510254 -0.10327 -1.36542e-28)             (0.0283882 0.0146869 -3.19421e-27)
         5.45             (33.2942 0.000123876 0)             (33.3486 3.11761e-07 0)             (33.3162 0.000307273 3.80391e-43)             (0.0045203 -0.101077 2.00444e-28)             (0.0112874 0.0222189 -4.16741e-27)
          5.5             (33.3676 0.000124282 0)             (33.4223 5.66567e-06 0)             (33.3897 0.000280965 4.027e-43)             (0.0054081 -0.0985072 7.06096e-28)             (0.00422039 0.0237301 1.17426e-27)
         5.55             (33.4383 0.000124671 0)             (33.4931 9.99266e-06 0)             (33.4604 0.000259429 4.19025e-43)             (0.00540489 -0.0951589 9.62298e-28)             (0.00889479 0.0198322 4.57537e-27)
          5.6             (33.5053 0.000125044 0)             (33.5603 1.37564e-05 0)             (33.5274 0.00023759 4.35265e-43)             (0.0036539 -0.0932621 6.82668e-28)             (0.0180146 0.0188399 5.47744e-27)
         5.65             (33.5676 0.000125401 0)             (33.6227 1.73077e-05 0)             (33.5897 0.000213558 4.52488e-43)             (0.00301481 -0.0931982 9.96255e-28)             (0.0226298 0.0238413 2.66942e-27)
          5.7             (33.6243 0.000125743 0)             (33.6797 2.33216e-05 0)             (33.6465 0.000184096 4.74019e-43)             (0.00247978 -0.0937671 1.34545e-28)             (0.0157345 0.0294999 -2.52243e-27)
         5.75             (33.6749 0.000126071 0)             (33.7304 2.98879e-05 0)             (33.6971 0.000157689 4.92958e-43)             (0.00354687 -0.0922561 1.37658e-28)             (0.0017359 0.033241 -4.94487e-27)
          5.8             (33.7185 0.000126385 0)             (33.7743 3.58653e-05 0)             (33.7408 0.000133548 5.07433e-43)             (0.00425623 -0.0895008 5.56996e-28)             (-0.00561411 0.0338008 -5.69374e-28)
         5.85             (33.7548 0.000126686 0)             (33.8107 3.93987e-05 0)             (33.777 0.000115279 5.15898e-43)             (0.00433164 -0.0866155 6.11782e-28)             (-0.00109304 0.0298478 4.08541e-27)
          5.9             (33.7831 0.000126975 0)             (33.8391 4.15946e-05 0)             (33.8054 9.78504e-05 5.22516e-43)             (0.00361332 -0.0846108 1.02692e-27)             (0.0120406 0.0258136 5.10667e-27)
         5.95             (33.8031 0.000127251 0)             (33.8592 4.48353e-05 0)             (33.8254 7.91713e-05 5.29112e-43)             (0.00272376 -0.0841329 1.03187e-27)             (0.0206059 0.0259235 2.58486e-27)
            6             (33.8145 0.000127517 0)             (33.8708 4.68559e-05 0)             (33.8369 5.66279e-05 5.39314e-43)             (0.00201528 -0.084864 8.72056e-28)             (0.0168035 0.0267296 -1.74953e-27)
         6.05             (33.8172 0.000127771 0)             (33.8736 4.71853e-05 0)             (33.8396 3.88958e-05 5.45548e-43)             (0.00202355 -0.0853073 -1.03508e-28)             (0.00450048 0.0274682 -3.96399e-27)
          6.1             (33.8112 0.000128016 0)             (33.8677 4.75884e-05 0)             (33.8336 2.47167e-05 5.49234e-43)             (0.0031022 -0.0858704 9.32136e-28)             (-0.00373565 0.0268704 -6.08842e-29)
         6.15             (33.7966 0.00012825 0)             (33.8531 4.79506e-05 0)             (33.819 1.66568e-05 5.48017e-43)             (0.00404413 -0.0842195 2.49716e-28)             (-0.00196335 0.0241062 3.50308e-27)
          6.2             (33.7734 0.000128475 0)             (33.83 4.84579e-05 0)             (33.7959 1.05575e-05 5.45536e-43)             (0.00368274 -0.0824775 3.35181e-28)             (0.00794538 0.0222599 4.03839e-27)
         6.25             (33.7421 0.00012869 0)             (33.7988 4.90359e-05 0)             (33.7646 3.95973e-06 5.4386e-43)             (0.00342652 -0.0819395 1.73119e-27)             (0.0139013 0.0218477 1.35609e-27)
          6.3             (33.703 0.000128897 0)             (33.7597 4.95735e-05 0)             (33.7255 -2.75892e-06 5.42019e-43)             (0.00250469 -0.0811443 -7.39597e-28)             (0.00965175 0.0210026 -2.42362e-27)
         6.35             (33.6567 0.000129096 0)             (33.7134 5.01518e-05 0)             (33.6792 -4.06231e-06 5.35816e-43)             (0.00158904 -0.082358 1.95554e-28)             (-0.00162835 0.0203762 -4.19347e-27)
          6.4             (33.6038 0.000129286 0)             (33.6604 5.07549e-05 0)             (33.6263 8.09498e-07 5.25779e-43)             (0.00304468 -0.0830473 3.44652e-28)             (-0.0073642 0.0198069 -1.73295e-28)
         6.45             (33.5449 0.000129469 0)             (33.6014 5.13955e-05 0)             (33.5674 1.12703e-05 5.11275e-43)             (0.00359749 -0.081832 -4.47863e-28)             (-0.00364545 0.0186166 3.93864e-27)
          6.5             (33.4809 0.000129644 0)             (33.5373 5.2047e-05 0)             (33.5034 2.33047e-05 4.95645e-43)             (0.00426873 -0.0805811 6.64594e-28)             (0.00475365 0.0179134 2.63854e-27)
         6.55             (33.4126 0.000129812 0)             (33.4688 5.26356e-05 0)             (33.435 3.5419e-05 4.81119e-43)             (0.004627 -0.0786118 6.96266e-28)             (0.00818462 0.0178761 3.92729e-28)
          6.6             (33.3408 0.000129973 0)             (33.3969 5.31827e-05 0)             (33.3633 4.94306e-05 4.66001e-43)             (0.00334958 -0.0772846 2.33899e-28)             (0.00330626 0.0181205 -2.91568e-27)
         6.65             (33.2666 0.000130127 0)             (33.3225 5.37706e-05 0)             (33.289 6.82415e-05 4.48247e-43)             (0.00251218 -0.0777327 4.44691e-28)             (-0.00641028 0.0185591 -3.04278e-27)
          6.7             (33.191 0.000130274 0)             (33.2467 5.43574e-05 0)             (33.2134 9.35739e-05 4.27082e-43)             (0.00332773 -0.0775514 1.5424e-28)             (-0.00799654 0.0181253 1.03871e-27)
         6.75             (33.115 0.000130415 0)             (33.1705 5.15207e-05 0)             (33.1374 0.000124421 4.0129e-43)             (0.00352827 -0.0768396 -1.94974e-28)             (-0.00166963 0.017469 2.69273e-27)
          6.8             (33.0397 0.00013055 0)             (33.0949 4.8223e-05 0)             (33.062 0.000154113 3.77139e-43)             (0.00305357 -0.0770925 -9.94999e-29)             (0.00357829 0.0171983 1.31019e-27)
         6.85             (32.966 0.00013068 0)             (33.021 4.3699e-05 0)             (32.9883 0.000179926 3.5476e-43)             (0.00285448 -0.0785635 5.94897e-28)             (0.00409963 0.0174616 -1.25538e-27)
          6.9             (32.895 0.000130803 0)             (32.9497 3.85612e-05 0)             (32.9172 0.000207551 3.314e-43)             (0.00304957 -0.0805958 1.34651e-27)             (-0.00185299 0.0175057 -3.56177e-27)
         6.95             (32.8276 0.000130921 0)             (32.8822 3.41432e-05 0)             (32.8499 0.000235622 3.10252e-43)             (0.00258799 -0.0833274 5.79415e-28)             (-0.0100434 0.0180038 -1.42511e-27)
            7             (32.765 0.000131033 0)             (32.8193 2.89628e-05 0)             (32.7872 0.000266429 2.86939e-43)             (0.00284096 -0.0855561 -2.5256e-28)             (-0.00934845 0.0181201 1.48495e-27)
         7.05             (32.7078 0.00013114 0)             (32.7619 2.27054e-05 0)             (32.73 0.000297434 2.63906e-43)             (0.00314573 -0.0873874 -2.92304e-28)             (-0.00275336 0.0172118 1.86382e-27)
          7.1             (32.657 0.000131242 0)             (32.7109 1.71353e-05 0)             (32.6791 0.000324623 2.45424e-43)             (0.00281858 -0.0894909 5.0624e-28)             (0.00131042 0.017321 6.06819e-28)
         7.15             (32.6132 0.000131339 0)             (32.6669 1.24248e-05 0)             (32.6353 0.000347535 2.3174e-43)             (0.00381464 -0.091321 7.27729e-28)             (0.000753352 0.0180358 -1.42975e-27)
          7.2             (32.5771 0.000131431 0)             (32.6307 8.13822e-06 0)             (32.5992 0.000368212 2.20849e-43)             (0.00380759 -0.0916071 -2.44682e-28)             (-0.00594872 0.0184391 -3.88862e-27)
         7.25             (32.5493 0.000131519 0)             (32.6027 3.82722e-06 0)             (32.5713 0.000388678 2.10513e-43)             (0.00300633 -0.0930592 -1.49354e-28)             (-0.0122046 0.0187341 -8.11908e-28)
          7.3             (32.5301 0.000131602 0)             (32.5834 -8.23483e-07 0)             (32.5521 0.000411175 1.98897e-43)             (0.00304702 -0.0953524 -7.37679e-29)             (-0.010142 0.0193589 1.88902e-27)
         7.35             (32.5198 0.000131681 0)             (32.573 -5.47448e-06 0)             (32.5418 0.00043089 1.89555e-43)             (0.00312286 -0.0981299 2.49711e-29)             (-0.00503087 0.0188436 8.54954e-28)
          7.4             (32.5186 0.000131755 0)             (32.5717 -8.86622e-06 0)             (32.5405 0.000444684 1.85958e-43)             (0.00330649 -0.100617 3.055e-28)             (-0.00282894 0.0194051 -3.55563e-28)
         7.45             (32.5264 0.000131826 0)             (32.5794 -1.12223e-05 0)             (32.5483 0.000453605 1.87029e-43)             (0.0036793 -0.102145 -3.04296e-30)             (-0.00465997 0.0203738 -2.0104e-27)