# Probe 0 (-0.1 -0.0025 0.0005)
# Probe 1 (0.1 -0.0025 0.0005)
# Probe 2 (0 -0.0025 0.0005)
# Probe 3 (0 0.025 0.0005)
# Probe 4 (0 0.09 0.0005)
#       Probe             0             1             2             3             4
#        Time
         0.05        168404        101515        160675        164679        162352
          0.1        141428        101537        136402        139609        138426
         0.15        129379        101742        125681        127882        127378
          0.2        123066        101716        120064        121666        121144
         0.25        118407        101692        115872        117039        116623
          0.3        115316        101675        113062        113937        113596
         0.35        113143        101679        111156        111823        111368
          0.4        111446        101664        109573        110085        109695
         0.45        109982        101660        108275        108670        108209
          0.5        108715        101634        107108        107371        106954
         0.55        107699        101647        106214        106363        106010
          0.6        107036        101645        105615        105648        105257
         0.65        106360        101637        105011        104988        104642
          0.7        105855        101632        104575        104523        104151
         0.75        105490        101625        104250        104179        103754
          0.8        105118        101621        103935        103830        103443
         0.85        104879        101616        103738        103608        103189
          0.9        104662        101611        103553        103400        102969
         0.95        104448        101607        103378        103211        102805
