# Probe 0 (-0.1 -0.0025 0.0005)
# Probe 1 (0.1 -0.0025 0.0005)
# Probe 2 (0 -0.0025 0.0005)
# Probe 3 (0 0.025 0.0005)
# Probe 4 (0 0.09 0.0005)
#       Probe             0             1             2             3             4
#        Time
         0.05        168379        101490        160650        164931        163252
          0.1        141403        101512        136377        139860        139159
         0.15        129354        101717        125656        128134        128285
          0.2        123041        101691        120039        121915        121145
         0.25        118382        101667        115847        117212        116624
          0.3        115291        101650        113037        114129        113891
         0.35        113118        101654        111131        112056        111723
          0.4        111421        101639        109548        110333        109697
         0.45        109957        101635        108250        108921        108210
          0.5        108690        101609        107083        107622        106955
         0.55        107674        101621        106189        106613        106432
          0.6        107011        101620        105590        105884        105259
         0.65        106334        101612        104986        105236        104644
          0.7        105830        101607        104550        104763        104153
         0.75        105465        101600        104225        104423        103756
          0.8        105093        101596        103910        104057        103444
         0.85        104854        101591        103713        103860        103191
          0.9        104637        101586        103528        103652        102971
         0.95        104423        101582        103353        103451        102806
