# Probe 0 (-0.1 -0.0025 0.0005)
# Probe 1 (0.1 -0.0025 0.0005)
# Probe 2 (0 -0.0025 0.0005)
# Probe 3 (0 0.025 0.0005)
# Probe 4 (0 0.09 0.0005)
#       Probe             0             1             2             3             4
#        Time
         0.05        168397        101457        160757        164963        163260
          0.1        141408        101492        136413        139853        139164
         0.15        129356        101717        125661        128136        128287
          0.2        123043        101690        120040        121917        121147
         0.25        118383        101667        115848        117213        116625
          0.3        115291        101650        113038        114130        113892
         0.35        113118        101654        111131        112056        111723
          0.4        111421        101639        109549        110333        109697
         0.45        109957        101635        108250        108921        108211
          0.5        108691        101609        107083        107623        106956
         0.55        107674        101621        106189        106613        106432
          0.6        107011        101620        105590        105885        105259
         0.65        106335        101612        104986        105236        104644
          0.7        105830        101607        104550        104763        104153
         0.75        105465        101600        104226        104423        103756
          0.8        105093        101596        103910        104057        103444
         0.85        104854        101591        103713        103860        103191
          0.9        104637        101586        103528        103652        102971
         0.95        104423        101582        103353        103451        102806
