# Probe 0 (-0.1 -0.0025 0.0005)
# Probe 1 (0.1 -0.0025 0.0005)
# Probe 2 (0 -0.0025 0.0005)
# Probe 3 (0 0.025 0.0005)
# Probe 4 (0 0.09 0.0005)
#       Probe             0             1             2             3             4
#        Time
         0.05        163055        161852        162705        166333        164791
          0.1   1.71181e-09   2.60344e-10   1.22012e-14             0             0
         0.15     0.0718807   1.82667e-06   1.56977e-06     0.0118601    0.00222217
          0.2             0     -0.909516             0     0.0288196   4.85784e-33
         0.25        117318        117507        117022        117503        117444
          0.3   6.52515e-38   3.69402e-33   1.65882e-76     0.0062649   8.10243e-11
         0.35     -0.174875     -0.184382             0     -0.209469             0
          0.4      -1671.07      -4264.73             0      -97.8285             0
         0.45       3635.94        31.934             0      -1450.24             0
          0.5  -8.21958e-12  -1.27242e-11  -1.16255e-08  6.75048e+276  -1.96769e-11
         0.55   5.46639e-06   3.03356e-06   4.88783e-06  -0.000130404   2.31472e-08
          0.6             0   -0.00984781             0             0             0
         0.65    -0.0842625  -0.000115465     -0.205106  -9.26554e-28  -1.08771e-07
          0.7    0.00974423  -0.000154443    1.3751e-06  -0.000499351   0.000327735
         0.75     0.0083768             0   1.36105e-06  -0.000582932    0.00187191
          0.8  -3.02099e-11   1.59129e-05   5.96796e-10  -2.45324e-08  -4.67379e-07
         0.85    0.00682423   1.13872e-11   1.33466e-06   -0.00583558    0.00173978
          0.9        103672        102971        103641        102971        102971
         0.95             0             0             1   1.43075e-08             1
