# Probe 0 (-0.1 -0.0025 0.0005)
# Probe 1 (0.1 -0.0025 0.0005)
# Probe 2 (0 -0.0025 0.0005)
# Probe 3 (0 0.025 0.0005)
# Probe 4 (0 0.09 0.0005)
#       Probe             0             1             2             3             4
#        Time
         0.05      0.259868      0.244662      0.161644      -89427.9     0.0790369
          0.1      0.259868      0.244662      0.161644      -89412.3     0.0790369
         0.15      0.259868      0.244662      0.161644      -89422.7     0.0790369
          0.2      0.259868      0.244662      0.161644        -89426     0.0790369
         0.25      0.259868      0.244662      0.161644      -21401.5     0.0790369
          0.3      0.259868      0.244662      0.161644      0.995334     0.0790369
         0.35      0.259868      0.244662      0.161644        -89436     0.0790369
          0.4      0.259868      0.244662      0.161644        110330     0.0790369
         0.45      0.259868      0.244662      0.161644    0.00014049     0.0790369
          0.5      0.259868      0.244662      0.161644   0.000121397     0.0790369
         0.55      0.259868      0.244662      0.161644   1.99221e-08     0.0790369
          0.6      0.259868      0.244662      0.161644   0.000129457     0.0790369
         0.65      0.259868      0.244662      0.161644      0.763363     0.0790369
          0.7      0.259868      0.244662      0.161644   1.43124e-08     0.0790369
         0.75      0.259868      0.244662      0.161644   1.70392e-06     0.0790369
          0.8      0.259868      0.244662      0.161644        104054     0.0790369
         0.85      0.259868      0.244662      0.161644        -21482     0.0790369
          0.9      0.259868      0.244662      0.161644        103590     0.0790369
         0.95      0.259868      0.244662      0.161644        103418     0.0790369
