# Probe 0 (-0.1 -0.0025 0.0005)
# Probe 1 (0.1 -0.0025 0.0005)
# Probe 2 (0 -0.0025 0.0005)
# Probe 3 (0 0.025 0.0005)
# Probe 4 (0 0.09 0.0005)
#       Probe             0             1             2             3             4
#        Time
         0.05             (31.2801 -0.000992423 0)             (33.0596 -0.0107537 0)             (31.4707 -0.18858 1.35827e-40)             (0.27513 -0.491425 -2.09552e-25)             (-0.404623 2.98357 1.00972e-24)
          0.1             (32.1984 -0.000942808 0)             (33.2907 -0.00557831 0)             (32.3362 -0.122238 9.03399e-41)             (0.105522 -0.423998 2.80113e-26)             (-0.476824 1.28596 3.96002e-25)
         0.15             (32.6392 -0.000895664 0)             (33.3934 -0.00492455 0)             (32.7433 -0.0865167 6.37226e-41)             (0.0393805 -0.393309 2.46955e-26)             (-0.284402 0.896988 -2.56812e-26)
          0.2             (32.8996 -0.000850759 0)             (33.4836 -0.00337118 0)             (32.9836 -0.0649955 4.80277e-41)             (0.0808128 -0.250435 3.6259e-26)             (-0.546652 0.0758775 -9.10664e-26)
         0.25             (33.1045 -0.000807916 0)             (33.5596 -0.00245876 0)             (33.1738 -0.0491422 3.65281e-41)             (0.0411593 -0.10916 -4.4137e-26)             (-0.134155 -0.0768966 1.57358e-25)
          0.3             (33.2568 -0.000767007 0)             (33.6267 -0.00190832 0)             (33.3161 -0.0384781 2.87429e-41)             (-0.0115907 -0.055582 -2.29135e-26)             (-0.208414 -0.0821349 -8.41522e-25)
         0.35             (33.3762 -0.000727926 0)             (33.6858 -0.00158353 0)             (33.4286 -0.0310274 2.32947e-41)             (0.0209339 -0.0293768 -6.84038e-27)             (-0.184388 -0.258238 -8.26233e-25)
          0.4             (33.474 -0.000690576 0)             (33.7364 -0.00139537 0)             (33.5209 -0.0253219 1.91174e-41)             (0.00396071 -0.0629983 -6.54633e-27)             (0.360162 -0.522534 -3.85662e-25)
         0.45             (33.5579 -0.000654869 0)             (33.7795 -0.00126827 0)             (33.5993 -0.0199719 1.51626e-41)             (-0.0220337 -0.037796 -2.04068e-26)             (0.455307 0.0806182 4.17877e-26)
          0.5             (33.6281 -0.000620731 0)             (33.814 -0.000926088 0)             (33.6661 -0.0162585 1.24926e-41)             (-0.0663986 -0.0571833 -5.00889e-26)             (0.311704 0.25356 2.31748e-25)
         0.55             (33.683 -0.000588086 0)             (33.8426 -0.00092975 0)             (33.7175 -0.0125385 9.72596e-42)             (-0.0839501 -0.123253 3.0602e-26)             (0.130119 -0.370661 1.0996e-25)
          0.6             (33.7191 -0.000556867 0)             (33.8609 -0.000839935 0)             (33.7519 -0.0102935 8.13142e-42)             (0.0213829 -0.150354 8.22902e-26)             (-0.358453 0.185668 1.0555e-25)
         0.65             (33.7468 -0.000527008 0)             (33.8705 -0.000775229 0)             (33.7775 -0.00819071 6.59072e-42)             (0.0453933 -0.0821837 1.19686e-27)             (0.0755442 0.0911851 1.139e-26)
          0.7             (33.7607 -0.000498444 0)             (33.8716 -0.000716782 0)             (33.79 -0.00664347 5.44239e-42)             (0.00719891 -0.132522 -5.83846e-26)             (0.0923542 0.151981 3.37645e-26)
         0.75             (33.7618 -0.000471117 0)             (33.8636 -0.000669977 0)             (33.7899 -0.00553321 4.60955e-42)             (0.0673987 -0.113797 -1.89992e-26)             (0.225647 0.0155081 7.43783e-26)
          0.8             (33.7545 -0.000444977 0)             (33.8469 -0.000613634 0)             (33.7815 -0.00443831 3.77899e-42)             (0.0870665 -0.0773089 -6.95357e-27)             (0.0247777 -0.148771 -3.67693e-26)
         0.85             (33.7349 -0.000419968 0)             (33.8219 -0.000572857 0)             (33.7612 -0.00374332 3.25139e-42)             (0.0746438 -0.0704291 -1.31586e-27)             (-0.0408636 -0.0972635 -8.91367e-27)
          0.9             (33.7066 -0.000396042 0)             (33.7884 -0.000529994 0)             (33.7321 -0.00312789 2.76291e-42)             (0.0602385 -0.0626174 -1.03751e-26)             (-0.104965 -0.0272644 3.1942e-26)
         0.95             (33.6707 -0.000373152 0)             (33.7476 -0.000496552 0)             (33.6955 -0.00252099 2.29962e-42)             (0.039026 -0.0563299 9.97703e-27)             (-0.0148581 0.0102711 3.78773e-26)
