# Region type : patch inlet
# Faces       : 4
# Area        : 4.500000e-06
# Scale factor: 1.000000e+00
# Time        	sum(phi)
1             	-1.512814e-04
1.05          	-1.510464e-04
1.1           	-1.507870e-04
1.15          	-1.505004e-04
1.2           	-1.501969e-04
1.25          	-1.498768e-04
1.3           	-1.495431e-04
1.35          	-1.492068e-04
1.4           	-1.488684e-04
1.45          	-1.485323e-04
1.5           	-1.482079e-04
1.55          	-1.478931e-04
1.6           	-1.475949e-04
1.65          	-1.473217e-04
1.7           	-1.470726e-04
1.75          	-1.468537e-04
1.8           	-1.466674e-04
1.85          	-1.465155e-04
1.9           	-1.464023e-04
1.95          	-1.463274e-04
2             	-1.462912e-04
2.05          	-1.462988e-04
2.1           	-1.463459e-04
2.15          	-1.464319e-04
2.2           	-1.465578e-04
2.25          	-1.467181e-04
2.3           	-1.469150e-04
2.35          	-1.471455e-04
2.4           	-1.474034e-04
2.45          	-1.476852e-04
2.5           	-1.479881e-04
2.55          	-1.483062e-04
2.6           	-1.486392e-04
2.65          	-1.489803e-04
2.7           	-1.493225e-04
2.75          	-1.496631e-04
2.8           	-1.499968e-04
2.85          	-1.503185e-04
2.9           	-1.506275e-04
2.95          	-1.509166e-04
3             	-1.511816e-04
3.05          	-1.514199e-04
3.1           	-1.516275e-04
3.15          	-1.518025e-04
3.2           	-1.519441e-04
3.25          	-1.520484e-04
3.3           	-1.521140e-04
3.35          	-1.521406e-04
3.4           	-1.521273e-04
3.45          	-1.520754e-04
3.5           	-1.519859e-04
3.55          	-1.518587e-04
3.6           	-1.516954e-04
3.65          	-1.514985e-04
3.7           	-1.512704e-04
3.75          	-1.510151e-04
3.8           	-1.507356e-04
3.85          	-1.504348e-04
3.9           	-1.501170e-04
3.95          	-1.497864e-04
4             	-1.494477e-04
4.05          	-1.491062e-04
4.1           	-1.487659e-04
4.15          	-1.484310e-04
4.2           	-1.481065e-04
4.25          	-1.477967e-04
4.3           	-1.475064e-04
4.35          	-1.472402e-04
4.4           	-1.470010e-04
4.45          	-1.467920e-04
4.5           	-1.466166e-04
4.55          	-1.464771e-04
4.6           	-1.463763e-04
4.65          	-1.463156e-04
4.7           	-1.462952e-04
4.75          	-1.463153e-04
4.8           	-1.463758e-04
4.85          	-1.464762e-04
4.9           	-1.466151e-04
4.95          	-1.467905e-04
5             	-1.469994e-04
5.05          	-1.472389e-04
5.1           	-1.475055e-04
5.15          	-1.477958e-04
5.2           	-1.481057e-04
5.25          	-1.484307e-04
5.3           	-1.487662e-04
5.35          	-1.491073e-04
5.4           	-1.494495e-04
5.45          	-1.497882e-04
5.5           	-1.501188e-04
5.55          	-1.504369e-04
5.6           	-1.507382e-04
5.65          	-1.510185e-04
5.7           	-1.512738e-04
5.75          	-1.515013e-04
5.8           	-1.516978e-04
5.85          	-1.518610e-04
5.9           	-1.519884e-04
5.95          	-1.520785e-04
6             	-1.521298e-04
6.05          	-1.521419e-04
6.1           	-1.521149e-04
6.15          	-1.520489e-04
6.2           	-1.519449e-04
6.25          	-1.518041e-04
6.3           	-1.516281e-04
6.35          	-1.514197e-04
6.4           	-1.511815e-04
6.45          	-1.509167e-04
6.5           	-1.506286e-04
6.55          	-1.503210e-04
6.6           	-1.499981e-04
6.65          	-1.496642e-04
6.7           	-1.493240e-04
6.75          	-1.489821e-04
6.8           	-1.486430e-04
6.85          	-1.483113e-04
6.9           	-1.479917e-04
6.95          	-1.476887e-04
7             	-1.474067e-04
7.05          	-1.471496e-04
7.1           	-1.469209e-04
7.15          	-1.467239e-04
7.2           	-1.465616e-04
7.25          	-1.464362e-04
7.3           	-1.463499e-04
7.35          	-1.463036e-04
7.4           	-1.462979e-04
7.45          	-1.463330e-04
7.5           	-1.464085e-04
7.55          	-1.465232e-04
7.6           	-1.466756e-04
7.65          	-1.468633e-04
7.7           	-1.470838e-04
7.75          	-1.473337e-04
7.8           	-1.476096e-04
7.85          	-1.479075e-04
7.9           	-1.482234e-04
7.95          	-1.485526e-04
8             	-1.488906e-04
8.05          	-1.492327e-04
8.1           	-1.495743e-04
8.15          	-1.499106e-04
8.2           	-1.502371e-04
8.25          	-1.505495e-04
8.3           	-1.508435e-04
8.35          	-1.511150e-04
8.4           	-1.513606e-04
8.45          	-1.515771e-04
8.5           	-1.517617e-04
8.55          	-1.519120e-04
8.6           	-1.520259e-04
8.65          	-1.521018e-04
8.7           	-1.521389e-04
8.75          	-1.521367e-04
8.8           	-1.520954e-04
8.85          	-1.520153e-04
8.9           	-1.518975e-04
8.95          	-1.517436e-04
9             	-1.515555e-04
9.05          	-1.513359e-04
9.1           	-1.510875e-04
9.15          	-1.508137e-04
9.2           	-1.505180e-04
9.25          	-1.502043e-04
9.3           	-1.498768e-04
9.35          	-1.495401e-04
9.4           	-1.491988e-04
9.45          	-1.488573e-04
9.5           	-1.485204e-04
9.55          	-1.481926e-04
9.6           	-1.478786e-04
9.65          	-1.475829e-04
9.7           	-1.473095e-04
9.75          	-1.470623e-04
9.8           	-1.468449e-04
9.85          	-1.466603e-04
9.9           	-1.465113e-04
9.95          	-1.464001e-04
10            	-1.463283e-04
10.05         	-1.462968e-04
10.1          	-1.463061e-04
10.15         	-1.463561e-04
10.2          	-1.464461e-04
10.25         	-1.465749e-04
10.3          	-1.467405e-04
10.35         	-1.469405e-04
10.4          	-1.471721e-04
10.45         	-1.474320e-04
10.5          	-1.477164e-04
10.55         	-1.480214e-04
10.6          	-1.483427e-04
10.65         	-1.486757e-04
10.7          	-1.490157e-04
10.75         	-1.493582e-04
10.8          	-1.496984e-04
10.85         	-1.500316e-04
10.9          	-1.503535e-04
10.95         	-1.506595e-04
11            	-1.509457e-04
11.05         	-1.512082e-04
11.1          	-1.514435e-04
11.15         	-1.516486e-04
11.2          	-1.518209e-04
11.25         	-1.519580e-04
11.3          	-1.520581e-04
11.35         	-1.521199e-04
11.4          	-1.521426e-04
11.45         	-1.521261e-04
11.5          	-1.520705e-04
11.55         	-1.519765e-04
11.6          	-1.518452e-04
11.65         	-1.516785e-04
11.7          	-1.514786e-04
11.75         	-1.512481e-04
11.8          	-1.509900e-04
11.85         	-1.507077e-04
11.9          	-1.504049e-04
11.95         	-1.500857e-04
12            	-1.497544e-04
12.05         	-1.494154e-04
12.1          	-1.490735e-04
12.15         	-1.487332e-04
12.2          	-1.483990e-04
12.25         	-1.480758e-04
12.3          	-1.477680e-04
12.35         	-1.474799e-04
12.4          	-1.472157e-04
12.45         	-1.469791e-04
12.5          	-1.467733e-04
12.55         	-1.466015e-04
12.6          	-1.464661e-04
12.65         	-1.463692e-04
12.7          	-1.463120e-04
12.75         	-1.462955e-04
12.8          	-1.463197e-04
12.85         	-1.463845e-04
12.9          	-1.464889e-04
12.95         	-1.466314e-04
13            	-1.468099e-04
13.05         	-1.470218e-04
13.1          	-1.472642e-04
13.15         	-1.475335e-04
13.2          	-1.478260e-04
13.25         	-1.481374e-04
13.3          	-1.484635e-04
13.35         	-1.487997e-04
13.4          	-1.491411e-04
13.45         	-1.494833e-04
13.5          	-1.498215e-04
13.55         	-1.501511e-04
13.6          	-1.504677e-04
13.65         	-1.507669e-04
13.7          	-1.510448e-04
13.75         	-1.512977e-04
13.8          	-1.515223e-04
13.85         	-1.517157e-04
13.9          	-1.518753e-04
13.95         	-1.519990e-04
14            	-1.520852e-04
14.05         	-1.521328e-04
14.1          	-1.521412e-04
14.15         	-1.521102e-04
14.2          	-1.520405e-04
14.25         	-1.519326e-04
14.3          	-1.517882e-04
14.35         	-1.516090e-04
14.4          	-1.513975e-04
14.45         	-1.511566e-04
14.5          	-1.508892e-04
14.55         	-1.505990e-04
14.6          	-1.502897e-04
14.65         	-1.499655e-04
14.7          	-1.496308e-04
14.75         	-1.492903e-04
14.8          	-1.489484e-04
14.85         	-1.486098e-04
14.9          	-1.482791e-04
14.95         	-1.479610e-04
15            	-1.476600e-04
15.05         	-1.473802e-04
15.1          	-1.471256e-04
15.15         	-1.468999e-04
15.2          	-1.467063e-04
15.25         	-1.465475e-04
15.3          	-1.464261e-04
15.35         	-1.463436e-04
15.4          	-1.463012e-04
15.45         	-1.462996e-04
15.5          	-1.463387e-04
15.55         	-1.464182e-04
15.6          	-1.465368e-04
15.65         	-1.466927e-04
15.7          	-1.468838e-04
15.75         	-1.471073e-04
15.8          	-1.473599e-04
15.85         	-1.476382e-04
15.9          	-1.479381e-04
15.95         	-1.482555e-04
16            	-1.485858e-04
16.05         	-1.489244e-04
16.1          	-1.492667e-04
16.15         	-1.496079e-04
16.2          	-1.499435e-04
16.25         	-1.502688e-04
16.3          	-1.505795e-04
16.35         	-1.508714e-04
16.4          	-1.511405e-04
16.45         	-1.513834e-04
16.5          	-1.515969e-04
16.55         	-1.517782e-04
16.6          	-1.519249e-04
16.65         	-1.520350e-04
16.7          	-1.521071e-04
16.75         	-1.521404e-04
16.8          	-1.521344e-04
16.85         	-1.520892e-04
16.9          	-1.520053e-04
16.95         	-1.518839e-04
17            	-1.517264e-04
17.05         	-1.515352e-04
17.1          	-1.513126e-04
17.15         	-1.510615e-04
17.2          	-1.507853e-04
17.25         	-1.504876e-04
17.3          	-1.501724e-04
17.35         	-1.498439e-04
17.4          	-1.495065e-04
17.45         	-1.491649e-04
17.5          	-1.488237e-04
17.55         	-1.484874e-04
17.6          	-1.481609e-04
17.65         	-1.478485e-04
17.7          	-1.475548e-04
17.75         	-1.472838e-04
17.8          	-1.470394e-04
17.85         	-1.468251e-04
17.9          	-1.466439e-04
17.95         	-1.464986e-04
18            	-1.463913e-04
18.05         	-1.463234e-04
18.1          	-1.462959e-04
18.15         	-1.463092e-04
18.2          	-1.463632e-04
18.25         	-1.464572e-04
18.3          	-1.465897e-04
18.35         	-1.467588e-04
18.4          	-1.469621e-04
18.45         	-1.471966e-04
18.5          	-1.474591e-04
18.55         	-1.477458e-04
18.6          	-1.480526e-04
18.65         	-1.483752e-04
18.7          	-1.487091e-04
18.75         	-1.490496e-04
18.8          	-1.493920e-04
18.85         	-1.497318e-04
18.9          	-1.500641e-04
18.95         	-1.503846e-04
19            	-1.506888e-04
19.05         	-1.509728e-04
19.1          	-1.512327e-04
19.15         	-1.514652e-04
19.2          	-1.516672e-04
19.25         	-1.518361e-04
19.3          	-1.519696e-04
19.35         	-1.520659e-04
19.4          	-1.521239e-04
19.45         	-1.521428e-04
19.5          	-1.521224e-04
19.55         	-1.520629e-04
19.6          	-1.519651e-04
19.65         	-1.518302e-04
19.7          	-1.516602e-04
19.75         	-1.514571e-04
19.8          	-1.512238e-04
19.85         	-1.509631e-04
19.9          	-1.506786e-04
19.95         	-1.503739e-04
20            	-1.500533e-04
