# Region type : patch outlet
# Faces       : 4
# Area        : 4.500000e-06
# Scale factor: 1.000000e+00
# Time        	average(U)	average(p)
1             	(3.361447e+01 -9.450441e-07 0.000000e+00)	1.013477e+05
1.05          	(3.356126e+01 -1.388144e-06 0.000000e+00)	1.013477e+05
1.1           	(3.350248e+01 -1.159796e-06 0.000000e+00)	1.013477e+05
1.15          	(3.343814e+01 -1.043446e-06 0.000000e+00)	1.013477e+05
1.2           	(3.336991e+01 -7.899706e-07 0.000000e+00)	1.013477e+05
1.25          	(3.329823e+01 5.631787e-07 0.000000e+00)	1.013477e+05
1.3           	(3.322387e+01 -7.587742e-07 0.000000e+00)	1.013477e+05
1.35          	(3.314849e+01 -7.856458e-07 0.000000e+00)	1.013477e+05
1.4           	(3.307294e+01 3.160868e-07 0.000000e+00)	1.013477e+05
1.45          	(3.299798e+01 -5.783732e-07 0.000000e+00)	1.013477e+05
1.5           	(3.292542e+01 -3.759432e-07 0.000000e+00)	1.013477e+05
1.55          	(3.285535e+01 4.133621e-07 0.000000e+00)	1.013477e+05
1.6           	(3.278904e+01 -2.659599e-07 0.000000e+00)	1.013477e+05
1.65          	(3.272792e+01 -6.682360e-09 0.000000e+00)	1.013477e+05
1.7           	(3.267243e+01 -8.483933e-07 0.000000e+00)	1.013477e+05
1.75          	(3.262344e+01 6.779659e-08 0.000000e+00)	1.013477e+05
1.8           	(3.258182e+01 -1.933386e-07 0.000000e+00)	1.013477e+05
1.85          	(3.254792e+01 -3.742280e-07 0.000000e+00)	1.013477e+05
1.9           	(3.252238e+01 -6.120434e-07 0.000000e+00)	1.013477e+05
1.95          	(3.250556e+01 6.604277e-07 0.000000e+00)	1.013477e+05
2             	(3.249746e+01 -2.397349e-07 0.000000e+00)	1.013477e+05
2.05          	(3.249872e+01 -2.637675e-07 0.000000e+00)	1.013477e+05
2.1           	(3.250900e+01 1.161552e-07 0.000000e+00)	1.013477e+05
2.15          	(3.252813e+01 -3.932397e-07 0.000000e+00)	1.013477e+05
2.2           	(3.255594e+01 2.610004e-07 0.000000e+00)	1.013477e+05
2.25          	(3.259183e+01 -1.198213e-07 0.000000e+00)	1.013477e+05
2.3           	(3.263552e+01 -1.824138e-07 0.000000e+00)	1.013477e+05
2.35          	(3.268650e+01 -1.336382e-07 0.000000e+00)	1.013477e+05
2.4           	(3.274378e+01 -2.309273e-08 0.000000e+00)	1.013477e+05
2.45          	(3.280652e+01 9.513976e-08 0.000000e+00)	1.013477e+05
2.5           	(3.287392e+01 4.947358e-08 0.000000e+00)	1.013477e+05
2.55          	(3.294508e+01 -3.319100e-08 0.000000e+00)	1.013477e+05
2.6           	(3.301897e+01 6.083317e-07 0.000000e+00)	1.013477e+05
2.65          	(3.309462e+01 -1.134773e-07 0.000000e+00)	1.013477e+05
2.7           	(3.317081e+01 3.814617e-08 0.000000e+00)	1.013477e+05
2.75          	(3.324663e+01 -7.358636e-08 0.000000e+00)	1.013477e+05
2.8           	(3.332098e+01 3.595924e-08 0.000000e+00)	1.013477e+05
2.85          	(3.339282e+01 5.574562e-08 0.000000e+00)	1.013477e+05
2.9           	(3.346143e+01 -9.929518e-08 0.000000e+00)	1.013477e+05
2.95          	(3.352570e+01 1.794356e-08 0.000000e+00)	1.013477e+05
3             	(3.358472e+01 -2.186928e-08 0.000000e+00)	1.013477e+05
3.05          	(3.363780e+01 3.310511e-08 0.000000e+00)	1.013477e+05
3.1           	(3.368414e+01 1.374922e-07 0.000000e+00)	1.013477e+05
3.15          	(3.372316e+01 -4.676090e-08 0.000000e+00)	1.013477e+05
3.2           	(3.375461e+01 -7.078400e-08 0.000000e+00)	1.013477e+05
3.25          	(3.377782e+01 5.906708e-08 0.000000e+00)	1.013477e+05
3.3           	(3.379248e+01 3.105532e-08 0.000000e+00)	1.013477e+05
3.35          	(3.379847e+01 4.326990e-08 0.000000e+00)	1.013477e+05
3.4           	(3.379562e+01 8.826283e-08 0.000000e+00)	1.013477e+05
3.45          	(3.378412e+01 -8.365243e-08 0.000000e+00)	1.013477e+05
3.5           	(3.376419e+01 -1.107321e-07 0.000000e+00)	1.013477e+05
3.55          	(3.373592e+01 -2.159183e-08 0.000000e+00)	1.013477e+05
3.6           	(3.369965e+01 -3.446693e-08 0.000000e+00)	1.013477e+05
3.65          	(3.365593e+01 -8.502184e-10 0.000000e+00)	1.013477e+05
3.7           	(3.360528e+01 -1.535008e-08 0.000000e+00)	1.013477e+05
3.75          	(3.354848e+01 -1.349082e-07 0.000000e+00)	1.013477e+05
3.8           	(3.348628e+01 -1.024821e-07 0.000000e+00)	1.013477e+05
3.85          	(3.341937e+01 -9.461200e-08 0.000000e+00)	1.013477e+05
3.9           	(3.334869e+01 -1.073011e-07 0.000000e+00)	1.013477e+05
3.95          	(3.327519e+01 -8.093902e-08 0.000000e+00)	1.013477e+05
4             	(3.319985e+01 -1.191944e-07 0.000000e+00)	1.013477e+05
4.05          	(3.312382e+01 -1.950598e-07 0.000000e+00)	1.013477e+05
4.1           	(3.304802e+01 -1.454214e-07 0.000000e+00)	1.013477e+05
4.15          	(3.297347e+01 -1.385783e-07 0.000000e+00)	1.013477e+05
4.2           	(3.290121e+01 -1.007553e-07 0.000000e+00)	1.013477e+05
4.25          	(3.283225e+01 -8.545854e-08 0.000000e+00)	1.013477e+05
4.3           	(3.276760e+01 -1.384782e-07 0.000000e+00)	1.013477e+05
4.35          	(3.270820e+01 -1.284529e-07 0.000000e+00)	1.013477e+05
4.4           	(3.265484e+01 -1.102835e-07 0.000000e+00)	1.013477e+05
4.45          	(3.260828e+01 -7.847369e-08 0.000000e+00)	1.013477e+05
4.5           	(3.256919e+01 -7.005034e-08 0.000000e+00)	1.013477e+05
4.55          	(3.253813e+01 -6.339833e-08 0.000000e+00)	1.013477e+05
4.6           	(3.251560e+01 -9.455186e-08 0.000000e+00)	1.013477e+05
4.65          	(3.250193e+01 -9.461907e-08 0.000000e+00)	1.013477e+05
4.7           	(3.249728e+01 -5.451977e-08 0.000000e+00)	1.013477e+05
4.75          	(3.250170e+01 -3.488628e-08 0.000000e+00)	1.013477e+05
4.8           	(3.251515e+01 -2.017236e-08 0.000000e+00)	1.013477e+05
4.85          	(3.253744e+01 -6.319037e-08 0.000000e+00)	1.013477e+05
4.9           	(3.256827e+01 -5.419068e-08 0.000000e+00)	1.013477e+05
4.95          	(3.260720e+01 -3.047034e-08 0.000000e+00)	1.013477e+05
5             	(3.265363e+01 -2.639693e-08 0.000000e+00)	1.013477e+05
5.05          	(3.270690e+01 -1.307166e-08 0.000000e+00)	1.013477e+05
5.1           	(3.276624e+01 8.078278e-09 0.000000e+00)	1.013477e+05
5.15          	(3.283083e+01 -2.479351e-08 0.000000e+00)	1.013477e+05
5.2           	(3.289976e+01 -2.012479e-08 0.000000e+00)	1.013477e+05
5.25          	(3.297205e+01 -1.438775e-08 0.000000e+00)	1.013477e+05
5.3           	(3.304669e+01 -7.394256e-09 0.000000e+00)	1.013477e+05
5.35          	(3.312263e+01 1.579041e-08 0.000000e+00)	1.013477e+05
5.4           	(3.319881e+01 7.267587e-09 0.000000e+00)	1.013477e+05
5.45          	(3.327422e+01 7.069337e-09 0.000000e+00)	1.013477e+05
5.5           	(3.334783e+01 8.794061e-09 0.000000e+00)	1.013477e+05
5.55          	(3.341865e+01 -1.184940e-08 0.000000e+00)	1.013477e+05
5.6           	(3.348571e+01 -3.313421e-09 0.000000e+00)	1.013477e+05
5.65          	(3.354812e+01 2.036728e-08 0.000000e+00)	1.013477e+05
5.7           	(3.360503e+01 1.877196e-08 0.000000e+00)	1.013477e+05
5.75          	(3.365573e+01 3.748741e-10 0.000000e+00)	1.013477e+05
5.8           	(3.369954e+01 -1.032672e-08 0.000000e+00)	1.013477e+05
5.85          	(3.373588e+01 -6.873484e-09 0.000000e+00)	1.013477e+05
5.9           	(3.376428e+01 -2.587048e-09 0.000000e+00)	1.013477e+05
5.95          	(3.378437e+01 1.040513e-08 0.000000e+00)	1.013477e+05
6             	(3.379586e+01 4.163166e-08 0.000000e+00)	1.013477e+05
6.05          	(3.379863e+01 2.052978e-08 0.000000e+00)	1.013477e+05
6.1           	(3.379266e+01 3.647789e-09 0.000000e+00)	1.013477e+05
6.15          	(3.377805e+01 -2.323315e-08 0.000000e+00)	1.013477e+05
6.2           	(3.375496e+01 -1.755305e-08 0.000000e+00)	1.013477e+05
6.25          	(3.372368e+01 -1.920920e-08 0.000000e+00)	1.013477e+05
6.3           	(3.368461e+01 -2.511811e-08 0.000000e+00)	1.013477e+05
6.35          	(3.363830e+01 -4.881311e-08 0.000000e+00)	1.013477e+05
6.4           	(3.358534e+01 -7.519867e-08 0.000000e+00)	1.013477e+05
6.45          	(3.352645e+01 -1.012824e-07 0.000000e+00)	1.013477e+05
6.5           	(3.346238e+01 -9.571970e-08 0.000000e+00)	1.013477e+05
6.55          	(3.339398e+01 -9.315612e-08 0.000000e+00)	1.013477e+05
6.6           	(3.332215e+01 -1.077600e-07 0.000000e+00)	1.013477e+05
6.65          	(3.324788e+01 -1.265174e-07 0.000000e+00)	1.013477e+05
6.7           	(3.317219e+01 -1.423281e-07 0.000000e+00)	1.013477e+05
6.75          	(3.309608e+01 -1.400464e-07 0.000000e+00)	1.013477e+05
6.8           	(3.302059e+01 -1.325931e-07 0.000000e+00)	1.013477e+05
6.85          	(3.294674e+01 -1.029771e-07 0.000000e+00)	1.013477e+05
6.9           	(3.287556e+01 -1.071342e-07 0.000000e+00)	1.013477e+05
6.95          	(3.280809e+01 -1.036204e-07 0.000000e+00)	1.013477e+05
7             	(3.274525e+01 -1.109328e-07 0.000000e+00)	1.013477e+05
7.05          	(3.268794e+01 -1.007034e-07 0.000000e+00)	1.013477e+05
7.1           	(3.263698e+01 -9.407362e-08 0.000000e+00)	1.013477e+05
7.15          	(3.259308e+01 -8.422399e-08 0.000000e+00)	1.013477e+05
7.2           	(3.255688e+01 -7.596692e-08 0.000000e+00)	1.013477e+05
7.25          	(3.252892e+01 -7.655514e-08 0.000000e+00)	1.013477e+05
7.3           	(3.250960e+01 -7.883650e-08 0.000000e+00)	1.013477e+05
7.35          	(3.249920e+01 -6.403981e-08 0.000000e+00)	1.013477e+05
7.4           	(3.249787e+01 -5.287635e-08 0.000000e+00)	1.013477e+05
7.45          	(3.250562e+01 -4.264775e-08 0.000000e+00)	1.013477e+05
7.5           	(3.252235e+01 -4.088029e-08 0.000000e+00)	1.013477e+05
7.55          	(3.254782e+01 -4.282004e-08 0.000000e+00)	1.013477e+05
7.6           	(3.258167e+01 -3.883173e-08 0.000000e+00)	1.013477e+05
7.65          	(3.262340e+01 -3.027419e-08 0.000000e+00)	1.013477e+05
7.7           	(3.267241e+01 -1.960749e-08 0.000000e+00)	1.013477e+05
7.75          	(3.272800e+01 -1.493806e-08 0.000000e+00)	1.013477e+05
7.8           	(3.278937e+01 -1.985183e-08 0.000000e+00)	1.013477e+05
7.85          	(3.285566e+01 -1.338668e-08 0.000000e+00)	1.013477e+05
7.9           	(3.292593e+01 -1.008255e-08 0.000000e+00)	1.013477e+05
7.95          	(3.299919e+01 -4.136737e-09 0.000000e+00)	1.013477e+05
8             	(3.307441e+01 9.374575e-10 0.000000e+00)	1.013477e+05
8.05          	(3.315056e+01 3.480329e-09 0.000000e+00)	1.013477e+05
8.1           	(3.322659e+01 4.136967e-09 0.000000e+00)	1.013477e+05
8.15          	(3.330146e+01 8.592299e-09 0.000000e+00)	1.013477e+05
8.2           	(3.337416e+01 3.431200e-10 0.000000e+00)	1.013477e+05
8.25          	(3.344371e+01 2.393752e-10 0.000000e+00)	1.013477e+05
8.3           	(3.350916e+01 6.558182e-09 0.000000e+00)	1.013477e+05
8.35          	(3.356965e+01 1.406315e-08 0.000000e+00)	1.013477e+05
8.4           	(3.362437e+01 9.817309e-10 0.000000e+00)	1.013477e+05
8.45          	(3.367262e+01 -3.196125e-09 0.000000e+00)	1.013477e+05
8.5           	(3.371376e+01 5.741620e-09 0.000000e+00)	1.013477e+05
8.55          	(3.374723e+01 3.316143e-09 0.000000e+00)	1.013477e+05
8.6           	(3.377262e+01 6.022968e-09 0.000000e+00)	1.013477e+05
8.65          	(3.378959e+01 2.887109e-08 0.000000e+00)	1.013477e+05
8.7           	(3.379790e+01 2.302546e-08 0.000000e+00)	1.013477e+05
8.75          	(3.379747e+01 6.144407e-09 0.000000e+00)	1.013477e+05
8.8           	(3.378833e+01 -5.018217e-09 0.000000e+00)	1.013477e+05
8.85          	(3.377057e+01 -1.230493e-08 0.000000e+00)	1.013477e+05
8.9           	(3.374443e+01 -2.094053e-08 0.000000e+00)	1.013477e+05
8.95          	(3.371025e+01 -2.371631e-08 0.000000e+00)	1.013477e+05
9             	(3.366847e+01 -3.644219e-08 0.000000e+00)	1.013477e+05
9.05          	(3.361964e+01 -6.105256e-08 0.000000e+00)	1.013477e+05
9.1           	(3.356443e+01 -7.979808e-08 0.000000e+00)	1.013477e+05
9.15          	(3.350354e+01 -9.191190e-08 0.000000e+00)	1.013477e+05
9.2           	(3.343778e+01 -8.931206e-08 0.000000e+00)	1.013477e+05
9.25          	(3.336801e+01 -1.025668e-07 0.000000e+00)	1.013477e+05
9.3           	(3.329518e+01 -1.196625e-07 0.000000e+00)	1.013477e+05
9.35          	(3.322028e+01 -1.356069e-07 0.000000e+00)	1.013477e+05
9.4           	(3.314431e+01 -1.314245e-07 0.000000e+00)	1.013477e+05
9.45          	(3.306830e+01 -1.359615e-07 0.000000e+00)	1.013477e+05
9.5           	(3.299329e+01 -1.057474e-07 0.000000e+00)	1.013477e+05
9.55          	(3.292030e+01 -1.061980e-07 0.000000e+00)	1.013477e+05
9.6           	(3.285037e+01 -1.085071e-07 0.000000e+00)	1.013477e+05
9.65          	(3.278449e+01 -1.088335e-07 0.000000e+00)	1.013477e+05
9.7           	(3.272358e+01 -1.003239e-07 0.000000e+00)	1.013477e+05
9.75          	(3.266850e+01 -9.448799e-08 0.000000e+00)	1.013477e+05
9.8           	(3.262004e+01 -8.966441e-08 0.000000e+00)	1.013477e+05
9.85          	(3.257890e+01 -8.295683e-08 0.000000e+00)	1.013477e+05
9.9           	(3.254567e+01 -7.774134e-08 0.000000e+00)	1.013477e+05
9.95          	(3.252083e+01 -7.669570e-08 0.000000e+00)	1.013477e+05
10            	(3.250475e+01 -7.374235e-08 0.000000e+00)	1.013477e+05
10.05         	(3.249766e+01 -6.065863e-08 0.000000e+00)	1.013477e+05
10.1          	(3.249966e+01 -4.996824e-08 0.000000e+00)	1.013477e+05
10.15         	(3.251072e+01 -4.550883e-08 0.000000e+00)	1.013477e+05
10.2          	(3.253069e+01 -4.278509e-08 0.000000e+00)	1.013477e+05
10.25         	(3.255929e+01 -3.973519e-08 0.000000e+00)	1.013477e+05
10.3          	(3.259608e+01 -3.077506e-08 0.000000e+00)	1.013477e+05
10.35         	(3.264055e+01 -2.866766e-08 0.000000e+00)	1.013477e+05
10.4          	(3.269206e+01 -2.089057e-08 0.000000e+00)	1.013477e+05
10.45         	(3.274986e+01 -1.489421e-08 0.000000e+00)	1.013477e+05
10.5          	(3.281314e+01 -1.388151e-08 0.000000e+00)	1.013477e+05
10.55         	(3.288100e+01 -8.703007e-09 0.000000e+00)	1.013477e+05
10.6          	(3.295248e+01 -8.195639e-09 0.000000e+00)	1.013477e+05
10.65         	(3.302657e+01 -2.219629e-09 0.000000e+00)	1.013477e+05
10.7          	(3.310226e+01 3.179683e-10 0.000000e+00)	1.013477e+05
10.75         	(3.317849e+01 2.837139e-09 0.000000e+00)	1.013477e+05
10.8          	(3.325422e+01 3.653798e-09 0.000000e+00)	1.013477e+05
10.85         	(3.332841e+01 -8.290828e-10 0.000000e+00)	1.013477e+05
10.9          	(3.340006e+01 3.577992e-09 0.000000e+00)	1.013477e+05
10.95         	(3.346821e+01 9.371722e-09 0.000000e+00)	1.013477e+05
11            	(3.353194e+01 1.252499e-08 0.000000e+00)	1.013477e+05
11.05         	(3.359040e+01 9.702635e-09 0.000000e+00)	1.013477e+05
11.1          	(3.364284e+01 -2.085757e-09 0.000000e+00)	1.013477e+05
11.15         	(3.368855e+01 -4.002029e-09 0.000000e+00)	1.013477e+05
11.2          	(3.372694e+01 9.842424e-09 0.000000e+00)	1.013477e+05
11.25         	(3.375750e+01 7.250821e-09 0.000000e+00)	1.013477e+05
11.3          	(3.377983e+01 1.434576e-08 0.000000e+00)	1.013477e+05
11.35         	(3.379364e+01 2.331094e-08 0.000000e+00)	1.013477e+05
11.4          	(3.379876e+01 1.457357e-08 0.000000e+00)	1.013477e+05
11.45         	(3.379513e+01 3.010136e-09 0.000000e+00)	1.013477e+05
11.5          	(3.378281e+01 -9.680063e-09 0.000000e+00)	1.013477e+05
11.55         	(3.376195e+01 -1.371996e-08 0.000000e+00)	1.013477e+05
11.6          	(3.373282e+01 -1.665446e-08 0.000000e+00)	1.013477e+05
11.65         	(3.369579e+01 -2.737509e-08 0.000000e+00)	1.013477e+05
11.7          	(3.365137e+01 -4.700778e-08 0.000000e+00)	1.013477e+05
11.75         	(3.360012e+01 -7.068950e-08 0.000000e+00)	1.013477e+05
11.8          	(3.354274e+01 -8.177918e-08 0.000000e+00)	1.013477e+05
11.85         	(3.347997e+01 -9.047778e-08 0.000000e+00)	1.013477e+05
11.9          	(3.341264e+01 -9.806765e-08 0.000000e+00)	1.013477e+05
11.95         	(3.334164e+01 -1.082505e-07 0.000000e+00)	1.013477e+05
12            	(3.326793e+01 -1.270177e-07 0.000000e+00)	1.013477e+05
12.05         	(3.319252e+01 -1.437939e-07 0.000000e+00)	1.013477e+05
12.1          	(3.311642e+01 -1.335528e-07 0.000000e+00)	1.013477e+05
12.15         	(3.304065e+01 -1.324020e-07 0.000000e+00)	1.013477e+05
12.2          	(3.296626e+01 -1.106062e-07 0.000000e+00)	1.013477e+05
12.25         	(3.289428e+01 -1.060146e-07 0.000000e+00)	1.013477e+05
12.3          	(3.282572e+01 -1.089020e-07 0.000000e+00)	1.013477e+05
12.35         	(3.276155e+01 -1.052110e-07 0.000000e+00)	1.013477e+05
12.4          	(3.270268e+01 -9.728338e-08 0.000000e+00)	1.013477e+05
12.45         	(3.264994e+01 -9.397342e-08 0.000000e+00)	1.013477e+05
12.5          	(3.260409e+01 -8.655958e-08 0.000000e+00)	1.013477e+05
12.55         	(3.256578e+01 -8.037083e-08 0.000000e+00)	1.013477e+05
12.6          	(3.253557e+01 -7.935098e-08 0.000000e+00)	1.013477e+05
12.65         	(3.251391e+01 -7.699623e-08 0.000000e+00)	1.013477e+05
12.7          	(3.250111e+01 -6.608866e-08 0.000000e+00)	1.013477e+05
12.75         	(3.249734e+01 -5.751832e-08 0.000000e+00)	1.013477e+05
12.8          	(3.250267e+01 -4.800831e-08 0.000000e+00)	1.013477e+05
12.85         	(3.251702e+01 -4.361952e-08 0.000000e+00)	1.013477e+05
12.9          	(3.254019e+01 -4.377955e-08 0.000000e+00)	1.013477e+05
12.95         	(3.257184e+01 -3.631714e-08 0.000000e+00)	1.013477e+05
13            	(3.261151e+01 -2.942795e-08 0.000000e+00)	1.013477e+05
13.05         	(3.265864e+01 -2.331220e-08 0.000000e+00)	1.013477e+05
13.1          	(3.271254e+01 -2.026530e-08 0.000000e+00)	1.013477e+05
13.15         	(3.277245e+01 -1.677350e-08 0.000000e+00)	1.013477e+05
13.2          	(3.283752e+01 -9.131879e-09 0.000000e+00)	1.013477e+05
13.25         	(3.290681e+01 -9.060156e-09 0.000000e+00)	1.013477e+05
13.3          	(3.297937e+01 -4.664582e-09 0.000000e+00)	1.013477e+05
13.35         	(3.305417e+01 1.276097e-10 0.000000e+00)	1.013477e+05
13.4          	(3.313018e+01 2.449778e-09 0.000000e+00)	1.013477e+05
13.45         	(3.320634e+01 4.874636e-09 0.000000e+00)	1.013477e+05
13.5          	(3.328162e+01 3.401760e-09 0.000000e+00)	1.013477e+05
13.55         	(3.335500e+01 3.315243e-09 0.000000e+00)	1.013477e+05
13.6          	(3.342548e+01 3.823777e-09 0.000000e+00)	1.013477e+05
13.65         	(3.349211e+01 6.957319e-09 0.000000e+00)	1.013477e+05
13.7          	(3.355401e+01 1.165936e-08 0.000000e+00)	1.013477e+05
13.75         	(3.361035e+01 2.734884e-09 0.000000e+00)	1.013477e+05
13.8          	(3.366040e+01 -5.491357e-10 0.000000e+00)	1.013477e+05
13.85         	(3.370350e+01 -7.327328e-09 0.000000e+00)	1.013477e+05
13.9          	(3.373906e+01 9.353167e-09 0.000000e+00)	1.013477e+05
13.95         	(3.376665e+01 9.666756e-09 0.000000e+00)	1.013477e+05
14            	(3.378589e+01 2.347304e-08 0.000000e+00)	1.013477e+05
14.05         	(3.379653e+01 1.845221e-08 0.000000e+00)	1.013477e+05
14.1          	(3.379845e+01 1.070585e-08 0.000000e+00)	1.013477e+05
14.15         	(3.379162e+01 -2.780132e-09 0.000000e+00)	1.013477e+05
14.2          	(3.377615e+01 -1.282329e-08 0.000000e+00)	1.013477e+05
14.25         	(3.375222e+01 -1.381763e-08 0.000000e+00)	1.013477e+05
14.3          	(3.372015e+01 -1.937294e-08 0.000000e+00)	1.013477e+05
14.35         	(3.368035e+01 -3.715593e-08 0.000000e+00)	1.013477e+05
14.4          	(3.363335e+01 -5.442784e-08 0.000000e+00)	1.013477e+05
14.45         	(3.357978e+01 -7.162532e-08 0.000000e+00)	1.013477e+05
14.5          	(3.352033e+01 -8.172893e-08 0.000000e+00)	1.013477e+05
14.55         	(3.345579e+01 -9.180308e-08 0.000000e+00)	1.013477e+05
14.6          	(3.338700e+01 -9.903463e-08 0.000000e+00)	1.013477e+05
14.65         	(3.331490e+01 -1.159894e-07 0.000000e+00)	1.013477e+05
14.7          	(3.324045e+01 -1.289426e-07 0.000000e+00)	1.013477e+05
14.75         	(3.316467e+01 -1.348787e-07 0.000000e+00)	1.013477e+05
14.8          	(3.308857e+01 -1.324400e-07 0.000000e+00)	1.013477e+05
14.85         	(3.301319e+01 -1.304502e-07 0.000000e+00)	1.013477e+05
14.9          	(3.293956e+01 -1.089568e-07 0.000000e+00)	1.013477e+05
14.95         	(3.286871e+01 -1.088521e-07 0.000000e+00)	1.013477e+05
15            	(3.280166e+01 -1.068507e-07 0.000000e+00)	1.013477e+05
15.05         	(3.273933e+01 -9.853238e-08 0.000000e+00)	1.013477e+05
15.1          	(3.268261e+01 -9.601732e-08 0.000000e+00)	1.013477e+05
15.15         	(3.263231e+01 -9.040424e-08 0.000000e+00)	1.013477e+05
15.2          	(3.258914e+01 -8.268447e-08 0.000000e+00)	1.013477e+05
15.25         	(3.255375e+01 -8.090991e-08 0.000000e+00)	1.013477e+05
15.3          	(3.252663e+01 -8.021143e-08 0.000000e+00)	1.013477e+05
15.35         	(3.250818e+01 -6.986929e-08 0.000000e+00)	1.013477e+05
15.4          	(3.249867e+01 -6.254468e-08 0.000000e+00)	1.013477e+05
15.45         	(3.249824e+01 -5.552194e-08 0.000000e+00)	1.013477e+05
15.5          	(3.250689e+01 -4.715396e-08 0.000000e+00)	1.013477e+05
15.55         	(3.252450e+01 -4.638750e-08 0.000000e+00)	1.013477e+05
15.6          	(3.255082e+01 -3.761488e-08 0.000000e+00)	1.013477e+05
15.65         	(3.258547e+01 -3.367869e-08 0.000000e+00)	1.013477e+05
15.7          	(3.262795e+01 -2.798869e-08 0.000000e+00)	1.013477e+05
15.75         	(3.267764e+01 -2.296641e-08 0.000000e+00)	1.013477e+05
15.8          	(3.273384e+01 -1.865731e-08 0.000000e+00)	1.013477e+05
15.85         	(3.279574e+01 -1.506220e-08 0.000000e+00)	1.013477e+05
15.9          	(3.286246e+01 -1.267984e-08 0.000000e+00)	1.013477e+05
15.95         	(3.293307e+01 -7.553424e-09 0.000000e+00)	1.013477e+05
16            	(3.300656e+01 -2.314575e-09 0.000000e+00)	1.013477e+05
16.05         	(3.308193e+01 5.584249e-10 0.000000e+00)	1.013477e+05
16.1          	(3.315811e+01 2.958434e-09 0.000000e+00)	1.013477e+05
16.15         	(3.323408e+01 2.466935e-09 0.000000e+00)	1.013477e+05
16.2          	(3.330878e+01 2.274527e-09 0.000000e+00)	1.013477e+05
16.25         	(3.338121e+01 3.241666e-09 0.000000e+00)	1.013477e+05
16.3          	(3.345039e+01 4.688991e-09 0.000000e+00)	1.013477e+05
16.35         	(3.351538e+01 1.358222e-08 0.000000e+00)	1.013477e+05
16.4          	(3.357533e+01 8.780763e-09 0.000000e+00)	1.013477e+05
16.45         	(3.362945e+01 2.386910e-09 0.000000e+00)	1.013477e+05
16.5          	(3.367703e+01 -4.107225e-09 0.000000e+00)	1.013477e+05
16.55         	(3.371743e+01 5.140202e-09 0.000000e+00)	1.013477e+05
16.6          	(3.375012e+01 1.048625e-08 0.000000e+00)	1.013477e+05
16.65         	(3.377468e+01 1.721908e-08 0.000000e+00)	1.013477e+05
16.7          	(3.379079e+01 2.150922e-08 0.000000e+00)	1.013477e+05
16.75         	(3.379825e+01 1.392388e-08 0.000000e+00)	1.013477e+05
16.8          	(3.379696e+01 4.975424e-09 0.000000e+00)	1.013477e+05
16.85         	(3.378696e+01 -6.550222e-09 0.000000e+00)	1.013477e+05
16.9          	(3.376836e+01 -7.506402e-09 0.000000e+00)	1.013477e+05
16.95         	(3.374140e+01 -1.204334e-08 0.000000e+00)	1.013477e+05
17            	(3.370643e+01 -2.702383e-08 0.000000e+00)	1.013477e+05
17.05         	(3.366394e+01 -4.490097e-08 0.000000e+00)	1.013477e+05
17.1          	(3.361446e+01 -6.140132e-08 0.000000e+00)	1.013477e+05
17.15         	(3.355865e+01 -7.209328e-08 0.000000e+00)	1.013477e+05
17.2          	(3.349723e+01 -8.273381e-08 0.000000e+00)	1.013477e+05
17.25         	(3.343103e+01 -9.203914e-08 0.000000e+00)	1.013477e+05
17.3          	(3.336092e+01 -1.075946e-07 0.000000e+00)	1.013477e+05
17.35         	(3.328785e+01 -1.210838e-07 0.000000e+00)	1.013477e+05
17.4          	(3.321280e+01 -1.422051e-07 0.000000e+00)	1.013477e+05
17.45         	(3.313677e+01 -1.283522e-07 0.000000e+00)	1.013477e+05
17.5          	(3.306081e+01 -1.285084e-07 0.000000e+00)	1.013477e+05
17.55         	(3.298596e+01 -1.093344e-07 0.000000e+00)	1.013477e+05
17.6          	(3.291323e+01 -1.091297e-07 0.000000e+00)	1.013477e+05
17.65         	(3.284366e+01 -1.094134e-07 0.000000e+00)	1.013477e+05
17.7          	(3.277823e+01 -1.056953e-07 0.000000e+00)	1.013477e+05
17.75         	(3.271785e+01 -9.753818e-08 0.000000e+00)	1.013477e+05
17.8          	(3.266339e+01 -9.317867e-08 0.000000e+00)	1.013477e+05
17.85         	(3.261563e+01 -8.650490e-08 0.000000e+00)	1.013477e+05
17.9          	(3.257524e+01 -8.360095e-08 0.000000e+00)	1.013477e+05
17.95         	(3.254283e+01 -8.138975e-08 0.000000e+00)	1.013477e+05
18            	(3.251885e+01 -7.700270e-08 0.000000e+00)	1.013477e+05
18.05         	(3.250365e+01 -6.750156e-08 0.000000e+00)	1.013477e+05
18.1          	(3.249746e+01 -6.065768e-08 0.000000e+00)	1.013477e+05
18.15         	(3.250036e+01 -5.032125e-08 0.000000e+00)	1.013477e+05
18.2          	(3.251231e+01 -4.624203e-08 0.000000e+00)	1.013477e+05
18.25         	(3.253315e+01 -4.353609e-08 0.000000e+00)	1.013477e+05
18.3          	(3.256257e+01 -3.518131e-08 0.000000e+00)	1.013477e+05
18.35         	(3.260015e+01 -3.030314e-08 0.000000e+00)	1.013477e+05
18.4          	(3.264535e+01 -2.407742e-08 0.000000e+00)	1.013477e+05
18.45         	(3.269751e+01 -2.342788e-08 0.000000e+00)	1.013477e+05
18.5          	(3.275590e+01 -1.943659e-08 0.000000e+00)	1.013477e+05
18.55         	(3.281967e+01 -1.122502e-08 0.000000e+00)	1.013477e+05
18.6          	(3.288793e+01 -9.894707e-09 0.000000e+00)	1.013477e+05
18.65         	(3.295971e+01 -3.413417e-09 0.000000e+00)	1.013477e+05
18.7          	(3.303401e+01 -1.068503e-09 0.000000e+00)	1.013477e+05
18.75         	(3.310979e+01 1.386967e-09 0.000000e+00)	1.013477e+05
18.8          	(3.318602e+01 2.349062e-09 0.000000e+00)	1.013477e+05
18.85         	(3.326164e+01 6.041045e-10 0.000000e+00)	1.013477e+05
18.9          	(3.333563e+01 3.800132e-09 0.000000e+00)	1.013477e+05
18.95         	(3.340698e+01 6.649114e-09 0.000000e+00)	1.013477e+05
19            	(3.347473e+01 1.170048e-08 0.000000e+00)	1.013477e+05
19.05         	(3.353797e+01 9.874741e-09 0.000000e+00)	1.013477e+05
19.1          	(3.359587e+01 5.950001e-09 0.000000e+00)	1.013477e+05
19.15         	(3.364767e+01 1.202387e-09 0.000000e+00)	1.013477e+05
19.2          	(3.369269e+01 -5.004767e-09 0.000000e+00)	1.013477e+05
19.25         	(3.373032e+01 1.589429e-08 0.000000e+00)	1.013477e+05
19.3          	(3.376007e+01 1.599795e-08 0.000000e+00)	1.013477e+05
19.35         	(3.378157e+01 1.186791e-08 0.000000e+00)	1.013477e+05
19.4          	(3.379453e+01 1.179491e-08 0.000000e+00)	1.013477e+05
19.45         	(3.379879e+01 1.063101e-08 0.000000e+00)	1.013477e+05
19.5          	(3.379431e+01 1.433003e-09 0.000000e+00)	1.013477e+05
19.55         	(3.378113e+01 -6.191825e-09 0.000000e+00)	1.013477e+05
19.6          	(3.375943e+01 -7.584427e-09 0.000000e+00)	1.013477e+05
19.65         	(3.372949e+01 -1.650861e-08 0.000000e+00)	1.013477e+05
19.7          	(3.369172e+01 -3.556304e-08 0.000000e+00)	1.013477e+05
19.75         	(3.364659e+01 -5.143006e-08 0.000000e+00)	1.013477e+05
19.8          	(3.359472e+01 -6.889830e-08 0.000000e+00)	1.013477e+05
19.85         	(3.353676e+01 -7.624575e-08 0.000000e+00)	1.013477e+05
19.9          	(3.347349e+01 -8.309927e-08 0.000000e+00)	1.013477e+05
19.95         	(3.340575e+01 -9.916528e-08 0.000000e+00)	1.013477e+05
20            	(3.333444e+01 -1.151715e-07 0.000000e+00)	1.013477e+05
